
     Program PWSCF v.6.6 starts on  7Sep2021 at 16:21:22 

     This program is part of the open-source Quantum ESPRESSO suite
     for quantum simulation of materials; please cite
         "P. Giannozzi et al., J. Phys.:Condens. Matter 21 395502 (2009);
         "P. Giannozzi et al., J. Phys.:Condens. Matter 29 465901 (2017);
          URL http://www.quantum-espresso.org", 
     in publications or presentations arising from this work. More details at
     http://www.quantum-espresso.org/quote

     Parallel version (MPI), running on     1 processors

     MPI processes distributed on     1 nodes
     Fft bands division:     nmany     =       1
     Reading input from Be_snapshot0.pw.scf.in
Warning: card &CELL ignored
Warning: card / ignored

     Current dimensions of program PWSCF are:
     Max number of different atomic species (ntypx) = 10
     Max number of k-points (npk) =  40000
     Max angular momentum in pseudopotentials (lmaxx) =  3

     Subspace diagonalization in iterative solution of the eigenvalue problem:
     a serial algorithm will be used


     G-vector sticks info
     --------------------
     sticks:   dense  smooth     PW     G-vecs:    dense   smooth      PW
     Sum         199     199     85                 3669     3669     881



     bravais-lattice index     =            0
     lattice parameter (alat)  =       4.2705  a.u.
     unit-cell volume          =     106.5443 (a.u.)^3
     number of atoms/cell      =            2
     number of atomic types    =            1
     number of electrons       =         4.00
     number of Kohn-Sham states=            4
     kinetic-energy cutoff     =      40.0000  Ry
     charge density cutoff     =     160.0000  Ry
     convergence threshold     =      2.0E-02
     mixing beta               =       0.1000
     number of iterations used =            8  plain     mixing
     Exchange-correlation= PBE
                           (   1   4   3   4   0   0   0)

     celldm(1)=   4.270452  celldm(2)=   0.000000  celldm(3)=   0.000000
     celldm(4)=   0.000000  celldm(5)=   0.000000  celldm(6)=   0.000000

     crystal axes: (cart. coord. in units of alat)
               a(1) = (   1.000000   0.000000   0.000000 )  
               a(2) = (  -0.500000   0.866025   0.000000 )  
               a(3) = (   0.000000   0.000000   1.579714 )  

     reciprocal axes: (cart. coord. in units 2 pi/alat)
               b(1) = (  1.000000  0.577351 -0.000000 )  
               b(2) = (  0.000000  1.154701  0.000000 )  
               b(3) = (  0.000000 -0.000000  0.633026 )  


     PseudoPot. # 1 for Be read from file:
     /home/fiedlerl/tools/pslibrary/pbe/PSEUDOPOTENTIALS/Be.pbe-n-rrkjus_psl.1.0.0.UPF
     MD5 check sum: 734a25375992c446e1da9bf329ae4716
     Pseudo is Ultrasoft + core correction, Zval =  2.0
     Generated using "atomic" code by A. Dal Corso v.6.6
     Using radial grid of 1041 points,  4 beta functions with: 
                l(1) =   0
                l(2) =   0
                l(3) =   1
                l(4) =   1
     Q(r) pseudized with 0 coefficients 


     atomic species   valence    mass     pseudopotential
        Be             2.00     9.01218     Be( 1.00)

     No symmetry found


                                    s                        frac. trans.

      isym =  1     identity                                     

 cryst.   s( 1) = (     1          0          0      )
                  (     0          1          0      )
                  (     0          0          1      )

 cart.    s( 1) = (  1.0000000  0.0000000  0.0000000 )
                  (  0.0000000  1.0000000  0.0000000 )
                  (  0.0000000  0.0000000  1.0000000 )


   Cartesian axes

     site n.     atom                  positions (alat units)
         1           Be  tau(   1) = (   0.7756717   0.1420480   1.1849022  )
         2           Be  tau(   2) = (  -0.2756717   0.7239773   0.3948116  )

   Crystallographic axes

     site n.     atom                  positions (cryst. coord.)
         1           Be  tau(   1) = (  0.8576831  0.1640230  0.7500739  )
         2           Be  tau(   2) = (  0.1423170  0.8359774  0.2499260  )

     number of k points=   512  Fermi-Dirac smearing, width (Ry)=  0.0019
                       cart. coord. in units 2pi/alat
        k(    1) = (   0.0000000   0.0000000   0.0000000), wk =   0.0039062
        k(    2) = (   0.0000000   0.0000000   0.0791282), wk =   0.0039062
        k(    3) = (   0.0000000   0.0000000   0.1582565), wk =   0.0039062
        k(    4) = (   0.0000000   0.0000000   0.2373847), wk =   0.0039062
        k(    5) = (   0.0000000   0.0000000  -0.3165130), wk =   0.0039062
        k(    6) = (   0.0000000   0.0000000  -0.2373847), wk =   0.0039062
        k(    7) = (   0.0000000   0.0000000  -0.1582565), wk =   0.0039062
        k(    8) = (   0.0000000   0.0000000  -0.0791282), wk =   0.0039062
        k(    9) = (   0.0000000   0.1443376   0.0000000), wk =   0.0039062
        k(   10) = (   0.0000000   0.1443376   0.0791282), wk =   0.0039062
        k(   11) = (   0.0000000   0.1443376   0.1582565), wk =   0.0039062
        k(   12) = (   0.0000000   0.1443376   0.2373847), wk =   0.0039062
        k(   13) = (   0.0000000   0.1443376  -0.3165130), wk =   0.0039062
        k(   14) = (   0.0000000   0.1443376  -0.2373847), wk =   0.0039062
        k(   15) = (   0.0000000   0.1443376  -0.1582565), wk =   0.0039062
        k(   16) = (   0.0000000   0.1443376  -0.0791282), wk =   0.0039062
        k(   17) = (   0.0000000   0.2886753   0.0000000), wk =   0.0039062
        k(   18) = (   0.0000000   0.2886753   0.0791282), wk =   0.0039062
        k(   19) = (   0.0000000   0.2886753   0.1582565), wk =   0.0039062
        k(   20) = (   0.0000000   0.2886753   0.2373847), wk =   0.0039062
        k(   21) = (   0.0000000   0.2886753  -0.3165130), wk =   0.0039062
        k(   22) = (   0.0000000   0.2886753  -0.2373847), wk =   0.0039062
        k(   23) = (   0.0000000   0.2886753  -0.1582565), wk =   0.0039062
        k(   24) = (   0.0000000   0.2886753  -0.0791282), wk =   0.0039062
        k(   25) = (   0.0000000   0.4330129   0.0000000), wk =   0.0039062
        k(   26) = (   0.0000000   0.4330129   0.0791282), wk =   0.0039062
        k(   27) = (   0.0000000   0.4330129   0.1582565), wk =   0.0039062
        k(   28) = (   0.0000000   0.4330129   0.2373847), wk =   0.0039062
        k(   29) = (   0.0000000   0.4330129  -0.3165130), wk =   0.0039062
        k(   30) = (   0.0000000   0.4330129  -0.2373847), wk =   0.0039062
        k(   31) = (   0.0000000   0.4330129  -0.1582565), wk =   0.0039062
        k(   32) = (   0.0000000   0.4330129  -0.0791282), wk =   0.0039062
        k(   33) = (   0.0000000  -0.5773505   0.0000000), wk =   0.0039062
        k(   34) = (   0.0000000  -0.5773505   0.0791282), wk =   0.0039062
        k(   35) = (   0.0000000  -0.5773505   0.1582565), wk =   0.0039062
        k(   36) = (   0.0000000  -0.5773505   0.2373847), wk =   0.0039062
        k(   37) = (   0.0000000  -0.5773505  -0.3165130), wk =   0.0039062
        k(   38) = (   0.0000000  -0.5773505  -0.2373847), wk =   0.0039062
        k(   39) = (   0.0000000  -0.5773505  -0.1582565), wk =   0.0039062
        k(   40) = (   0.0000000  -0.5773505  -0.0791282), wk =   0.0039062
        k(   41) = (   0.0000000  -0.4330129   0.0000000), wk =   0.0039062
        k(   42) = (   0.0000000  -0.4330129   0.0791282), wk =   0.0039062
        k(   43) = (   0.0000000  -0.4330129   0.1582565), wk =   0.0039062
        k(   44) = (   0.0000000  -0.4330129   0.2373847), wk =   0.0039062
        k(   45) = (   0.0000000  -0.4330129  -0.3165130), wk =   0.0039062
        k(   46) = (   0.0000000  -0.4330129  -0.2373847), wk =   0.0039062
        k(   47) = (   0.0000000  -0.4330129  -0.1582565), wk =   0.0039062
        k(   48) = (   0.0000000  -0.4330129  -0.0791282), wk =   0.0039062
        k(   49) = (   0.0000000  -0.2886753   0.0000000), wk =   0.0039062
        k(   50) = (   0.0000000  -0.2886753   0.0791282), wk =   0.0039062
        k(   51) = (   0.0000000  -0.2886753   0.1582565), wk =   0.0039062
        k(   52) = (   0.0000000  -0.2886753   0.2373847), wk =   0.0039062
        k(   53) = (   0.0000000  -0.2886753  -0.3165130), wk =   0.0039062
        k(   54) = (   0.0000000  -0.2886753  -0.2373847), wk =   0.0039062
        k(   55) = (   0.0000000  -0.2886753  -0.1582565), wk =   0.0039062
        k(   56) = (   0.0000000  -0.2886753  -0.0791282), wk =   0.0039062
        k(   57) = (   0.0000000  -0.1443376   0.0000000), wk =   0.0039062
        k(   58) = (   0.0000000  -0.1443376   0.0791282), wk =   0.0039062
        k(   59) = (   0.0000000  -0.1443376   0.1582565), wk =   0.0039062
        k(   60) = (   0.0000000  -0.1443376   0.2373847), wk =   0.0039062
        k(   61) = (   0.0000000  -0.1443376  -0.3165130), wk =   0.0039062
        k(   62) = (   0.0000000  -0.1443376  -0.2373847), wk =   0.0039062
        k(   63) = (   0.0000000  -0.1443376  -0.1582565), wk =   0.0039062
        k(   64) = (   0.0000000  -0.1443376  -0.0791282), wk =   0.0039062
        k(   65) = (   0.1250000   0.0721688   0.0000000), wk =   0.0039062
        k(   66) = (   0.1250000   0.0721688   0.0791282), wk =   0.0039062
        k(   67) = (   0.1250000   0.0721688   0.1582565), wk =   0.0039062
        k(   68) = (   0.1250000   0.0721688   0.2373847), wk =   0.0039062
        k(   69) = (   0.1250000   0.0721688  -0.3165130), wk =   0.0039062
        k(   70) = (   0.1250000   0.0721688  -0.2373847), wk =   0.0039062
        k(   71) = (   0.1250000   0.0721688  -0.1582565), wk =   0.0039062
        k(   72) = (   0.1250000   0.0721688  -0.0791282), wk =   0.0039062
        k(   73) = (   0.1250000   0.2165065   0.0000000), wk =   0.0039062
        k(   74) = (   0.1250000   0.2165065   0.0791282), wk =   0.0039062
        k(   75) = (   0.1250000   0.2165065   0.1582565), wk =   0.0039062
        k(   76) = (   0.1250000   0.2165065   0.2373847), wk =   0.0039062
        k(   77) = (   0.1250000   0.2165065  -0.3165130), wk =   0.0039062
        k(   78) = (   0.1250000   0.2165065  -0.2373847), wk =   0.0039062
        k(   79) = (   0.1250000   0.2165065  -0.1582565), wk =   0.0039062
        k(   80) = (   0.1250000   0.2165065  -0.0791282), wk =   0.0039062
        k(   81) = (   0.1250000   0.3608441   0.0000000), wk =   0.0039062
        k(   82) = (   0.1250000   0.3608441   0.0791282), wk =   0.0039062
        k(   83) = (   0.1250000   0.3608441   0.1582565), wk =   0.0039062
        k(   84) = (   0.1250000   0.3608441   0.2373847), wk =   0.0039062
        k(   85) = (   0.1250000   0.3608441  -0.3165130), wk =   0.0039062
        k(   86) = (   0.1250000   0.3608441  -0.2373847), wk =   0.0039062
        k(   87) = (   0.1250000   0.3608441  -0.1582565), wk =   0.0039062
        k(   88) = (   0.1250000   0.3608441  -0.0791282), wk =   0.0039062
        k(   89) = (   0.1250000   0.5051817   0.0000000), wk =   0.0039062
        k(   90) = (   0.1250000   0.5051817   0.0791282), wk =   0.0039062
        k(   91) = (   0.1250000   0.5051817   0.1582565), wk =   0.0039062
        k(   92) = (   0.1250000   0.5051817   0.2373847), wk =   0.0039062
        k(   93) = (   0.1250000   0.5051817  -0.3165130), wk =   0.0039062
        k(   94) = (   0.1250000   0.5051817  -0.2373847), wk =   0.0039062
        k(   95) = (   0.1250000   0.5051817  -0.1582565), wk =   0.0039062
        k(   96) = (   0.1250000   0.5051817  -0.0791282), wk =   0.0039062
        k(   97) = (   0.1250000  -0.5051817   0.0000000), wk =   0.0039062
        k(   98) = (   0.1250000  -0.5051817   0.0791282), wk =   0.0039062
        k(   99) = (   0.1250000  -0.5051817   0.1582565), wk =   0.0039062
        k(  100) = (   0.1250000  -0.5051817   0.2373847), wk =   0.0039062
        k(  101) = (   0.1250000  -0.5051817  -0.3165130), wk =   0.0039062
        k(  102) = (   0.1250000  -0.5051817  -0.2373847), wk =   0.0039062
        k(  103) = (   0.1250000  -0.5051817  -0.1582565), wk =   0.0039062
        k(  104) = (   0.1250000  -0.5051817  -0.0791282), wk =   0.0039062
        k(  105) = (   0.1250000  -0.3608441   0.0000000), wk =   0.0039062
        k(  106) = (   0.1250000  -0.3608441   0.0791282), wk =   0.0039062
        k(  107) = (   0.1250000  -0.3608441   0.1582565), wk =   0.0039062
        k(  108) = (   0.1250000  -0.3608441   0.2373847), wk =   0.0039062
        k(  109) = (   0.1250000  -0.3608441  -0.3165130), wk =   0.0039062
        k(  110) = (   0.1250000  -0.3608441  -0.2373847), wk =   0.0039062
        k(  111) = (   0.1250000  -0.3608441  -0.1582565), wk =   0.0039062
        k(  112) = (   0.1250000  -0.3608441  -0.0791282), wk =   0.0039062
        k(  113) = (   0.1250000  -0.2165065   0.0000000), wk =   0.0039062
        k(  114) = (   0.1250000  -0.2165065   0.0791282), wk =   0.0039062
        k(  115) = (   0.1250000  -0.2165065   0.1582565), wk =   0.0039062
        k(  116) = (   0.1250000  -0.2165065   0.2373847), wk =   0.0039062
        k(  117) = (   0.1250000  -0.2165065  -0.3165130), wk =   0.0039062
        k(  118) = (   0.1250000  -0.2165065  -0.2373847), wk =   0.0039062
        k(  119) = (   0.1250000  -0.2165065  -0.1582565), wk =   0.0039062
        k(  120) = (   0.1250000  -0.2165065  -0.0791282), wk =   0.0039062
        k(  121) = (   0.1250000  -0.0721688   0.0000000), wk =   0.0039062
        k(  122) = (   0.1250000  -0.0721688   0.0791282), wk =   0.0039062
        k(  123) = (   0.1250000  -0.0721688   0.1582565), wk =   0.0039062
        k(  124) = (   0.1250000  -0.0721688   0.2373847), wk =   0.0039062
        k(  125) = (   0.1250000  -0.0721688  -0.3165130), wk =   0.0039062
        k(  126) = (   0.1250000  -0.0721688  -0.2373847), wk =   0.0039062
        k(  127) = (   0.1250000  -0.0721688  -0.1582565), wk =   0.0039062
        k(  128) = (   0.1250000  -0.0721688  -0.0791282), wk =   0.0039062
        k(  129) = (   0.2500000   0.1443376   0.0000000), wk =   0.0039062
        k(  130) = (   0.2500000   0.1443376   0.0791282), wk =   0.0039062
        k(  131) = (   0.2500000   0.1443376   0.1582565), wk =   0.0039062
        k(  132) = (   0.2500000   0.1443376   0.2373847), wk =   0.0039062
        k(  133) = (   0.2500000   0.1443376  -0.3165130), wk =   0.0039062
        k(  134) = (   0.2500000   0.1443376  -0.2373847), wk =   0.0039062
        k(  135) = (   0.2500000   0.1443376  -0.1582565), wk =   0.0039062
        k(  136) = (   0.2500000   0.1443376  -0.0791282), wk =   0.0039062
        k(  137) = (   0.2500000   0.2886753   0.0000000), wk =   0.0039062
        k(  138) = (   0.2500000   0.2886753   0.0791282), wk =   0.0039062
        k(  139) = (   0.2500000   0.2886753   0.1582565), wk =   0.0039062
        k(  140) = (   0.2500000   0.2886753   0.2373847), wk =   0.0039062
        k(  141) = (   0.2500000   0.2886753  -0.3165130), wk =   0.0039062
        k(  142) = (   0.2500000   0.2886753  -0.2373847), wk =   0.0039062
        k(  143) = (   0.2500000   0.2886753  -0.1582565), wk =   0.0039062
        k(  144) = (   0.2500000   0.2886753  -0.0791282), wk =   0.0039062
        k(  145) = (   0.2500000   0.4330129   0.0000000), wk =   0.0039062
        k(  146) = (   0.2500000   0.4330129   0.0791282), wk =   0.0039062
        k(  147) = (   0.2500000   0.4330129   0.1582565), wk =   0.0039062
        k(  148) = (   0.2500000   0.4330129   0.2373847), wk =   0.0039062
        k(  149) = (   0.2500000   0.4330129  -0.3165130), wk =   0.0039062
        k(  150) = (   0.2500000   0.4330129  -0.2373847), wk =   0.0039062
        k(  151) = (   0.2500000   0.4330129  -0.1582565), wk =   0.0039062
        k(  152) = (   0.2500000   0.4330129  -0.0791282), wk =   0.0039062
        k(  153) = (   0.2500000   0.5773505   0.0000000), wk =   0.0039062
        k(  154) = (   0.2500000   0.5773505   0.0791282), wk =   0.0039062
        k(  155) = (   0.2500000   0.5773505   0.1582565), wk =   0.0039062
        k(  156) = (   0.2500000   0.5773505   0.2373847), wk =   0.0039062
        k(  157) = (   0.2500000   0.5773505  -0.3165130), wk =   0.0039062
        k(  158) = (   0.2500000   0.5773505  -0.2373847), wk =   0.0039062
        k(  159) = (   0.2500000   0.5773505  -0.1582565), wk =   0.0039062
        k(  160) = (   0.2500000   0.5773505  -0.0791282), wk =   0.0039062
        k(  161) = (   0.2500000  -0.4330129   0.0000000), wk =   0.0039062
        k(  162) = (   0.2500000  -0.4330129   0.0791282), wk =   0.0039062
        k(  163) = (   0.2500000  -0.4330129   0.1582565), wk =   0.0039062
        k(  164) = (   0.2500000  -0.4330129   0.2373847), wk =   0.0039062
        k(  165) = (   0.2500000  -0.4330129  -0.3165130), wk =   0.0039062
        k(  166) = (   0.2500000  -0.4330129  -0.2373847), wk =   0.0039062
        k(  167) = (   0.2500000  -0.4330129  -0.1582565), wk =   0.0039062
        k(  168) = (   0.2500000  -0.4330129  -0.0791282), wk =   0.0039062
        k(  169) = (   0.2500000  -0.2886753   0.0000000), wk =   0.0039062
        k(  170) = (   0.2500000  -0.2886753   0.0791282), wk =   0.0039062
        k(  171) = (   0.2500000  -0.2886753   0.1582565), wk =   0.0039062
        k(  172) = (   0.2500000  -0.2886753   0.2373847), wk =   0.0039062
        k(  173) = (   0.2500000  -0.2886753  -0.3165130), wk =   0.0039062
        k(  174) = (   0.2500000  -0.2886753  -0.2373847), wk =   0.0039062
        k(  175) = (   0.2500000  -0.2886753  -0.1582565), wk =   0.0039062
        k(  176) = (   0.2500000  -0.2886753  -0.0791282), wk =   0.0039062
        k(  177) = (   0.2500000  -0.1443376   0.0000000), wk =   0.0039062
        k(  178) = (   0.2500000  -0.1443376   0.0791282), wk =   0.0039062
        k(  179) = (   0.2500000  -0.1443376   0.1582565), wk =   0.0039062
        k(  180) = (   0.2500000  -0.1443376   0.2373847), wk =   0.0039062
        k(  181) = (   0.2500000  -0.1443376  -0.3165130), wk =   0.0039062
        k(  182) = (   0.2500000  -0.1443376  -0.2373847), wk =   0.0039062
        k(  183) = (   0.2500000  -0.1443376  -0.1582565), wk =   0.0039062
        k(  184) = (   0.2500000  -0.1443376  -0.0791282), wk =   0.0039062
        k(  185) = (   0.2500000   0.0000000   0.0000000), wk =   0.0039062
        k(  186) = (   0.2500000   0.0000000   0.0791282), wk =   0.0039062
        k(  187) = (   0.2500000   0.0000000   0.1582565), wk =   0.0039062
        k(  188) = (   0.2500000   0.0000000   0.2373847), wk =   0.0039062
        k(  189) = (   0.2500000   0.0000000  -0.3165130), wk =   0.0039062
        k(  190) = (   0.2500000   0.0000000  -0.2373847), wk =   0.0039062
        k(  191) = (   0.2500000   0.0000000  -0.1582565), wk =   0.0039062
        k(  192) = (   0.2500000   0.0000000  -0.0791282), wk =   0.0039062
        k(  193) = (   0.3750000   0.2165065   0.0000000), wk =   0.0039062
        k(  194) = (   0.3750000   0.2165065   0.0791282), wk =   0.0039062
        k(  195) = (   0.3750000   0.2165065   0.1582565), wk =   0.0039062
        k(  196) = (   0.3750000   0.2165065   0.2373847), wk =   0.0039062
        k(  197) = (   0.3750000   0.2165065  -0.3165130), wk =   0.0039062
        k(  198) = (   0.3750000   0.2165065  -0.2373847), wk =   0.0039062
        k(  199) = (   0.3750000   0.2165065  -0.1582565), wk =   0.0039062
        k(  200) = (   0.3750000   0.2165065  -0.0791282), wk =   0.0039062
        k(  201) = (   0.3750000   0.3608441   0.0000000), wk =   0.0039062
        k(  202) = (   0.3750000   0.3608441   0.0791282), wk =   0.0039062
        k(  203) = (   0.3750000   0.3608441   0.1582565), wk =   0.0039062
        k(  204) = (   0.3750000   0.3608441   0.2373847), wk =   0.0039062
        k(  205) = (   0.3750000   0.3608441  -0.3165130), wk =   0.0039062
        k(  206) = (   0.3750000   0.3608441  -0.2373847), wk =   0.0039062
        k(  207) = (   0.3750000   0.3608441  -0.1582565), wk =   0.0039062
        k(  208) = (   0.3750000   0.3608441  -0.0791282), wk =   0.0039062
        k(  209) = (   0.3750000   0.5051817   0.0000000), wk =   0.0039062
        k(  210) = (   0.3750000   0.5051817   0.0791282), wk =   0.0039062
        k(  211) = (   0.3750000   0.5051817   0.1582565), wk =   0.0039062
        k(  212) = (   0.3750000   0.5051817   0.2373847), wk =   0.0039062
        k(  213) = (   0.3750000   0.5051817  -0.3165130), wk =   0.0039062
        k(  214) = (   0.3750000   0.5051817  -0.2373847), wk =   0.0039062
        k(  215) = (   0.3750000   0.5051817  -0.1582565), wk =   0.0039062
        k(  216) = (   0.3750000   0.5051817  -0.0791282), wk =   0.0039062
        k(  217) = (   0.3750000   0.6495194   0.0000000), wk =   0.0039062
        k(  218) = (   0.3750000   0.6495194   0.0791282), wk =   0.0039062
        k(  219) = (   0.3750000   0.6495194   0.1582565), wk =   0.0039062
        k(  220) = (   0.3750000   0.6495194   0.2373847), wk =   0.0039062
        k(  221) = (   0.3750000   0.6495194  -0.3165130), wk =   0.0039062
        k(  222) = (   0.3750000   0.6495194  -0.2373847), wk =   0.0039062
        k(  223) = (   0.3750000   0.6495194  -0.1582565), wk =   0.0039062
        k(  224) = (   0.3750000   0.6495194  -0.0791282), wk =   0.0039062
        k(  225) = (   0.3750000  -0.3608441   0.0000000), wk =   0.0039062
        k(  226) = (   0.3750000  -0.3608441   0.0791282), wk =   0.0039062
        k(  227) = (   0.3750000  -0.3608441   0.1582565), wk =   0.0039062
        k(  228) = (   0.3750000  -0.3608441   0.2373847), wk =   0.0039062
        k(  229) = (   0.3750000  -0.3608441  -0.3165130), wk =   0.0039062
        k(  230) = (   0.3750000  -0.3608441  -0.2373847), wk =   0.0039062
        k(  231) = (   0.3750000  -0.3608441  -0.1582565), wk =   0.0039062
        k(  232) = (   0.3750000  -0.3608441  -0.0791282), wk =   0.0039062
        k(  233) = (   0.3750000  -0.2165065   0.0000000), wk =   0.0039062
        k(  234) = (   0.3750000  -0.2165065   0.0791282), wk =   0.0039062
        k(  235) = (   0.3750000  -0.2165065   0.1582565), wk =   0.0039062
        k(  236) = (   0.3750000  -0.2165065   0.2373847), wk =   0.0039062
        k(  237) = (   0.3750000  -0.2165065  -0.3165130), wk =   0.0039062
        k(  238) = (   0.3750000  -0.2165065  -0.2373847), wk =   0.0039062
        k(  239) = (   0.3750000  -0.2165065  -0.1582565), wk =   0.0039062
        k(  240) = (   0.3750000  -0.2165065  -0.0791282), wk =   0.0039062
        k(  241) = (   0.3750000  -0.0721688   0.0000000), wk =   0.0039062
        k(  242) = (   0.3750000  -0.0721688   0.0791282), wk =   0.0039062
        k(  243) = (   0.3750000  -0.0721688   0.1582565), wk =   0.0039062
        k(  244) = (   0.3750000  -0.0721688   0.2373847), wk =   0.0039062
        k(  245) = (   0.3750000  -0.0721688  -0.3165130), wk =   0.0039062
        k(  246) = (   0.3750000  -0.0721688  -0.2373847), wk =   0.0039062
        k(  247) = (   0.3750000  -0.0721688  -0.1582565), wk =   0.0039062
        k(  248) = (   0.3750000  -0.0721688  -0.0791282), wk =   0.0039062
        k(  249) = (   0.3750000   0.0721688   0.0000000), wk =   0.0039062
        k(  250) = (   0.3750000   0.0721688   0.0791282), wk =   0.0039062
        k(  251) = (   0.3750000   0.0721688   0.1582565), wk =   0.0039062
        k(  252) = (   0.3750000   0.0721688   0.2373847), wk =   0.0039062
        k(  253) = (   0.3750000   0.0721688  -0.3165130), wk =   0.0039062
        k(  254) = (   0.3750000   0.0721688  -0.2373847), wk =   0.0039062
        k(  255) = (   0.3750000   0.0721688  -0.1582565), wk =   0.0039062
        k(  256) = (   0.3750000   0.0721688  -0.0791282), wk =   0.0039062
        k(  257) = (  -0.5000000  -0.2886753   0.0000000), wk =   0.0039062
        k(  258) = (  -0.5000000  -0.2886753   0.0791282), wk =   0.0039062
        k(  259) = (  -0.5000000  -0.2886753   0.1582565), wk =   0.0039062
        k(  260) = (  -0.5000000  -0.2886753   0.2373847), wk =   0.0039062
        k(  261) = (  -0.5000000  -0.2886753  -0.3165130), wk =   0.0039062
        k(  262) = (  -0.5000000  -0.2886753  -0.2373847), wk =   0.0039062
        k(  263) = (  -0.5000000  -0.2886753  -0.1582565), wk =   0.0039062
        k(  264) = (  -0.5000000  -0.2886753  -0.0791282), wk =   0.0039062
        k(  265) = (  -0.5000000  -0.1443376   0.0000000), wk =   0.0039062
        k(  266) = (  -0.5000000  -0.1443376   0.0791282), wk =   0.0039062
        k(  267) = (  -0.5000000  -0.1443376   0.1582565), wk =   0.0039062
        k(  268) = (  -0.5000000  -0.1443376   0.2373847), wk =   0.0039062
        k(  269) = (  -0.5000000  -0.1443376  -0.3165130), wk =   0.0039062
        k(  270) = (  -0.5000000  -0.1443376  -0.2373847), wk =   0.0039062
        k(  271) = (  -0.5000000  -0.1443376  -0.1582565), wk =   0.0039062
        k(  272) = (  -0.5000000  -0.1443376  -0.0791282), wk =   0.0039062
        k(  273) = (  -0.5000000   0.0000000   0.0000000), wk =   0.0039062
        k(  274) = (  -0.5000000   0.0000000   0.0791282), wk =   0.0039062
        k(  275) = (  -0.5000000   0.0000000   0.1582565), wk =   0.0039062
        k(  276) = (  -0.5000000   0.0000000   0.2373847), wk =   0.0039062
        k(  277) = (  -0.5000000   0.0000000  -0.3165130), wk =   0.0039062
        k(  278) = (  -0.5000000   0.0000000  -0.2373847), wk =   0.0039062
        k(  279) = (  -0.5000000   0.0000000  -0.1582565), wk =   0.0039062
        k(  280) = (  -0.5000000   0.0000000  -0.0791282), wk =   0.0039062
        k(  281) = (  -0.5000000   0.1443376   0.0000000), wk =   0.0039062
        k(  282) = (  -0.5000000   0.1443376   0.0791282), wk =   0.0039062
        k(  283) = (  -0.5000000   0.1443376   0.1582565), wk =   0.0039062
        k(  284) = (  -0.5000000   0.1443376   0.2373847), wk =   0.0039062
        k(  285) = (  -0.5000000   0.1443376  -0.3165130), wk =   0.0039062
        k(  286) = (  -0.5000000   0.1443376  -0.2373847), wk =   0.0039062
        k(  287) = (  -0.5000000   0.1443376  -0.1582565), wk =   0.0039062
        k(  288) = (  -0.5000000   0.1443376  -0.0791282), wk =   0.0039062
        k(  289) = (  -0.5000000  -0.8660258   0.0000000), wk =   0.0039062
        k(  290) = (  -0.5000000  -0.8660258   0.0791282), wk =   0.0039062
        k(  291) = (  -0.5000000  -0.8660258   0.1582565), wk =   0.0039062
        k(  292) = (  -0.5000000  -0.8660258   0.2373847), wk =   0.0039062
        k(  293) = (  -0.5000000  -0.8660258  -0.3165130), wk =   0.0039062
        k(  294) = (  -0.5000000  -0.8660258  -0.2373847), wk =   0.0039062
        k(  295) = (  -0.5000000  -0.8660258  -0.1582565), wk =   0.0039062
        k(  296) = (  -0.5000000  -0.8660258  -0.0791282), wk =   0.0039062
        k(  297) = (  -0.5000000  -0.7216882   0.0000000), wk =   0.0039062
        k(  298) = (  -0.5000000  -0.7216882   0.0791282), wk =   0.0039062
        k(  299) = (  -0.5000000  -0.7216882   0.1582565), wk =   0.0039062
        k(  300) = (  -0.5000000  -0.7216882   0.2373847), wk =   0.0039062
        k(  301) = (  -0.5000000  -0.7216882  -0.3165130), wk =   0.0039062
        k(  302) = (  -0.5000000  -0.7216882  -0.2373847), wk =   0.0039062
        k(  303) = (  -0.5000000  -0.7216882  -0.1582565), wk =   0.0039062
        k(  304) = (  -0.5000000  -0.7216882  -0.0791282), wk =   0.0039062
        k(  305) = (  -0.5000000  -0.5773505   0.0000000), wk =   0.0039062
        k(  306) = (  -0.5000000  -0.5773505   0.0791282), wk =   0.0039062
        k(  307) = (  -0.5000000  -0.5773505   0.1582565), wk =   0.0039062
        k(  308) = (  -0.5000000  -0.5773505   0.2373847), wk =   0.0039062
        k(  309) = (  -0.5000000  -0.5773505  -0.3165130), wk =   0.0039062
        k(  310) = (  -0.5000000  -0.5773505  -0.2373847), wk =   0.0039062
        k(  311) = (  -0.5000000  -0.5773505  -0.1582565), wk =   0.0039062
        k(  312) = (  -0.5000000  -0.5773505  -0.0791282), wk =   0.0039062
        k(  313) = (  -0.5000000  -0.4330129   0.0000000), wk =   0.0039062
        k(  314) = (  -0.5000000  -0.4330129   0.0791282), wk =   0.0039062
        k(  315) = (  -0.5000000  -0.4330129   0.1582565), wk =   0.0039062
        k(  316) = (  -0.5000000  -0.4330129   0.2373847), wk =   0.0039062
        k(  317) = (  -0.5000000  -0.4330129  -0.3165130), wk =   0.0039062
        k(  318) = (  -0.5000000  -0.4330129  -0.2373847), wk =   0.0039062
        k(  319) = (  -0.5000000  -0.4330129  -0.1582565), wk =   0.0039062
        k(  320) = (  -0.5000000  -0.4330129  -0.0791282), wk =   0.0039062
        k(  321) = (  -0.3750000  -0.2165065   0.0000000), wk =   0.0039062
        k(  322) = (  -0.3750000  -0.2165065   0.0791282), wk =   0.0039062
        k(  323) = (  -0.3750000  -0.2165065   0.1582565), wk =   0.0039062
        k(  324) = (  -0.3750000  -0.2165065   0.2373847), wk =   0.0039062
        k(  325) = (  -0.3750000  -0.2165065  -0.3165130), wk =   0.0039062
        k(  326) = (  -0.3750000  -0.2165065  -0.2373847), wk =   0.0039062
        k(  327) = (  -0.3750000  -0.2165065  -0.1582565), wk =   0.0039062
        k(  328) = (  -0.3750000  -0.2165065  -0.0791282), wk =   0.0039062
        k(  329) = (  -0.3750000  -0.0721688   0.0000000), wk =   0.0039062
        k(  330) = (  -0.3750000  -0.0721688   0.0791282), wk =   0.0039062
        k(  331) = (  -0.3750000  -0.0721688   0.1582565), wk =   0.0039062
        k(  332) = (  -0.3750000  -0.0721688   0.2373847), wk =   0.0039062
        k(  333) = (  -0.3750000  -0.0721688  -0.3165130), wk =   0.0039062
        k(  334) = (  -0.3750000  -0.0721688  -0.2373847), wk =   0.0039062
        k(  335) = (  -0.3750000  -0.0721688  -0.1582565), wk =   0.0039062
        k(  336) = (  -0.3750000  -0.0721688  -0.0791282), wk =   0.0039062
        k(  337) = (  -0.3750000   0.0721688   0.0000000), wk =   0.0039062
        k(  338) = (  -0.3750000   0.0721688   0.0791282), wk =   0.0039062
        k(  339) = (  -0.3750000   0.0721688   0.1582565), wk =   0.0039062
        k(  340) = (  -0.3750000   0.0721688   0.2373847), wk =   0.0039062
        k(  341) = (  -0.3750000   0.0721688  -0.3165130), wk =   0.0039062
        k(  342) = (  -0.3750000   0.0721688  -0.2373847), wk =   0.0039062
        k(  343) = (  -0.3750000   0.0721688  -0.1582565), wk =   0.0039062
        k(  344) = (  -0.3750000   0.0721688  -0.0791282), wk =   0.0039062
        k(  345) = (  -0.3750000   0.2165065   0.0000000), wk =   0.0039062
        k(  346) = (  -0.3750000   0.2165065   0.0791282), wk =   0.0039062
        k(  347) = (  -0.3750000   0.2165065   0.1582565), wk =   0.0039062
        k(  348) = (  -0.3750000   0.2165065   0.2373847), wk =   0.0039062
        k(  349) = (  -0.3750000   0.2165065  -0.3165130), wk =   0.0039062
        k(  350) = (  -0.3750000   0.2165065  -0.2373847), wk =   0.0039062
        k(  351) = (  -0.3750000   0.2165065  -0.1582565), wk =   0.0039062
        k(  352) = (  -0.3750000   0.2165065  -0.0791282), wk =   0.0039062
        k(  353) = (  -0.3750000  -0.7938570   0.0000000), wk =   0.0039062
        k(  354) = (  -0.3750000  -0.7938570   0.0791282), wk =   0.0039062
        k(  355) = (  -0.3750000  -0.7938570   0.1582565), wk =   0.0039062
        k(  356) = (  -0.3750000  -0.7938570   0.2373847), wk =   0.0039062
        k(  357) = (  -0.3750000  -0.7938570  -0.3165130), wk =   0.0039062
        k(  358) = (  -0.3750000  -0.7938570  -0.2373847), wk =   0.0039062
        k(  359) = (  -0.3750000  -0.7938570  -0.1582565), wk =   0.0039062
        k(  360) = (  -0.3750000  -0.7938570  -0.0791282), wk =   0.0039062
        k(  361) = (  -0.3750000  -0.6495194   0.0000000), wk =   0.0039062
        k(  362) = (  -0.3750000  -0.6495194   0.0791282), wk =   0.0039062
        k(  363) = (  -0.3750000  -0.6495194   0.1582565), wk =   0.0039062
        k(  364) = (  -0.3750000  -0.6495194   0.2373847), wk =   0.0039062
        k(  365) = (  -0.3750000  -0.6495194  -0.3165130), wk =   0.0039062
        k(  366) = (  -0.3750000  -0.6495194  -0.2373847), wk =   0.0039062
        k(  367) = (  -0.3750000  -0.6495194  -0.1582565), wk =   0.0039062
        k(  368) = (  -0.3750000  -0.6495194  -0.0791282), wk =   0.0039062
        k(  369) = (  -0.3750000  -0.5051817   0.0000000), wk =   0.0039062
        k(  370) = (  -0.3750000  -0.5051817   0.0791282), wk =   0.0039062
        k(  371) = (  -0.3750000  -0.5051817   0.1582565), wk =   0.0039062
        k(  372) = (  -0.3750000  -0.5051817   0.2373847), wk =   0.0039062
        k(  373) = (  -0.3750000  -0.5051817  -0.3165130), wk =   0.0039062
        k(  374) = (  -0.3750000  -0.5051817  -0.2373847), wk =   0.0039062
        k(  375) = (  -0.3750000  -0.5051817  -0.1582565), wk =   0.0039062
        k(  376) = (  -0.3750000  -0.5051817  -0.0791282), wk =   0.0039062
        k(  377) = (  -0.3750000  -0.3608441   0.0000000), wk =   0.0039062
        k(  378) = (  -0.3750000  -0.3608441   0.0791282), wk =   0.0039062
        k(  379) = (  -0.3750000  -0.3608441   0.1582565), wk =   0.0039062
        k(  380) = (  -0.3750000  -0.3608441   0.2373847), wk =   0.0039062
        k(  381) = (  -0.3750000  -0.3608441  -0.3165130), wk =   0.0039062
        k(  382) = (  -0.3750000  -0.3608441  -0.2373847), wk =   0.0039062
        k(  383) = (  -0.3750000  -0.3608441  -0.1582565), wk =   0.0039062
        k(  384) = (  -0.3750000  -0.3608441  -0.0791282), wk =   0.0039062
        k(  385) = (  -0.2500000  -0.1443376   0.0000000), wk =   0.0039062
        k(  386) = (  -0.2500000  -0.1443376   0.0791282), wk =   0.0039062
        k(  387) = (  -0.2500000  -0.1443376   0.1582565), wk =   0.0039062
        k(  388) = (  -0.2500000  -0.1443376   0.2373847), wk =   0.0039062
        k(  389) = (  -0.2500000  -0.1443376  -0.3165130), wk =   0.0039062
        k(  390) = (  -0.2500000  -0.1443376  -0.2373847), wk =   0.0039062
        k(  391) = (  -0.2500000  -0.1443376  -0.1582565), wk =   0.0039062
        k(  392) = (  -0.2500000  -0.1443376  -0.0791282), wk =   0.0039062
        k(  393) = (  -0.2500000   0.0000000   0.0000000), wk =   0.0039062
        k(  394) = (  -0.2500000   0.0000000   0.0791282), wk =   0.0039062
        k(  395) = (  -0.2500000   0.0000000   0.1582565), wk =   0.0039062
        k(  396) = (  -0.2500000   0.0000000   0.2373847), wk =   0.0039062
        k(  397) = (  -0.2500000   0.0000000  -0.3165130), wk =   0.0039062
        k(  398) = (  -0.2500000   0.0000000  -0.2373847), wk =   0.0039062
        k(  399) = (  -0.2500000   0.0000000  -0.1582565), wk =   0.0039062
        k(  400) = (  -0.2500000   0.0000000  -0.0791282), wk =   0.0039062
        k(  401) = (  -0.2500000   0.1443376   0.0000000), wk =   0.0039062
        k(  402) = (  -0.2500000   0.1443376   0.0791282), wk =   0.0039062
        k(  403) = (  -0.2500000   0.1443376   0.1582565), wk =   0.0039062
        k(  404) = (  -0.2500000   0.1443376   0.2373847), wk =   0.0039062
        k(  405) = (  -0.2500000   0.1443376  -0.3165130), wk =   0.0039062
        k(  406) = (  -0.2500000   0.1443376  -0.2373847), wk =   0.0039062
        k(  407) = (  -0.2500000   0.1443376  -0.1582565), wk =   0.0039062
        k(  408) = (  -0.2500000   0.1443376  -0.0791282), wk =   0.0039062
        k(  409) = (  -0.2500000   0.2886753   0.0000000), wk =   0.0039062
        k(  410) = (  -0.2500000   0.2886753   0.0791282), wk =   0.0039062
        k(  411) = (  -0.2500000   0.2886753   0.1582565), wk =   0.0039062
        k(  412) = (  -0.2500000   0.2886753   0.2373847), wk =   0.0039062
        k(  413) = (  -0.2500000   0.2886753  -0.3165130), wk =   0.0039062
        k(  414) = (  -0.2500000   0.2886753  -0.2373847), wk =   0.0039062
        k(  415) = (  -0.2500000   0.2886753  -0.1582565), wk =   0.0039062
        k(  416) = (  -0.2500000   0.2886753  -0.0791282), wk =   0.0039062
        k(  417) = (  -0.2500000  -0.7216882   0.0000000), wk =   0.0039062
        k(  418) = (  -0.2500000  -0.7216882   0.0791282), wk =   0.0039062
        k(  419) = (  -0.2500000  -0.7216882   0.1582565), wk =   0.0039062
        k(  420) = (  -0.2500000  -0.7216882   0.2373847), wk =   0.0039062
        k(  421) = (  -0.2500000  -0.7216882  -0.3165130), wk =   0.0039062
        k(  422) = (  -0.2500000  -0.7216882  -0.2373847), wk =   0.0039062
        k(  423) = (  -0.2500000  -0.7216882  -0.1582565), wk =   0.0039062
        k(  424) = (  -0.2500000  -0.7216882  -0.0791282), wk =   0.0039062
        k(  425) = (  -0.2500000  -0.5773505   0.0000000), wk =   0.0039062
        k(  426) = (  -0.2500000  -0.5773505   0.0791282), wk =   0.0039062
        k(  427) = (  -0.2500000  -0.5773505   0.1582565), wk =   0.0039062
        k(  428) = (  -0.2500000  -0.5773505   0.2373847), wk =   0.0039062
        k(  429) = (  -0.2500000  -0.5773505  -0.3165130), wk =   0.0039062
        k(  430) = (  -0.2500000  -0.5773505  -0.2373847), wk =   0.0039062
        k(  431) = (  -0.2500000  -0.5773505  -0.1582565), wk =   0.0039062
        k(  432) = (  -0.2500000  -0.5773505  -0.0791282), wk =   0.0039062
        k(  433) = (  -0.2500000  -0.4330129   0.0000000), wk =   0.0039062
        k(  434) = (  -0.2500000  -0.4330129   0.0791282), wk =   0.0039062
        k(  435) = (  -0.2500000  -0.4330129   0.1582565), wk =   0.0039062
        k(  436) = (  -0.2500000  -0.4330129   0.2373847), wk =   0.0039062
        k(  437) = (  -0.2500000  -0.4330129  -0.3165130), wk =   0.0039062
        k(  438) = (  -0.2500000  -0.4330129  -0.2373847), wk =   0.0039062
        k(  439) = (  -0.2500000  -0.4330129  -0.1582565), wk =   0.0039062
        k(  440) = (  -0.2500000  -0.4330129  -0.0791282), wk =   0.0039062
        k(  441) = (  -0.2500000  -0.2886753   0.0000000), wk =   0.0039062
        k(  442) = (  -0.2500000  -0.2886753   0.0791282), wk =   0.0039062
        k(  443) = (  -0.2500000  -0.2886753   0.1582565), wk =   0.0039062
        k(  444) = (  -0.2500000  -0.2886753   0.2373847), wk =   0.0039062
        k(  445) = (  -0.2500000  -0.2886753  -0.3165130), wk =   0.0039062
        k(  446) = (  -0.2500000  -0.2886753  -0.2373847), wk =   0.0039062
        k(  447) = (  -0.2500000  -0.2886753  -0.1582565), wk =   0.0039062
        k(  448) = (  -0.2500000  -0.2886753  -0.0791282), wk =   0.0039062
        k(  449) = (  -0.1250000  -0.0721688   0.0000000), wk =   0.0039062
        k(  450) = (  -0.1250000  -0.0721688   0.0791282), wk =   0.0039062
        k(  451) = (  -0.1250000  -0.0721688   0.1582565), wk =   0.0039062
        k(  452) = (  -0.1250000  -0.0721688   0.2373847), wk =   0.0039062
        k(  453) = (  -0.1250000  -0.0721688  -0.3165130), wk =   0.0039062
        k(  454) = (  -0.1250000  -0.0721688  -0.2373847), wk =   0.0039062
        k(  455) = (  -0.1250000  -0.0721688  -0.1582565), wk =   0.0039062
        k(  456) = (  -0.1250000  -0.0721688  -0.0791282), wk =   0.0039062
        k(  457) = (  -0.1250000   0.0721688   0.0000000), wk =   0.0039062
        k(  458) = (  -0.1250000   0.0721688   0.0791282), wk =   0.0039062
        k(  459) = (  -0.1250000   0.0721688   0.1582565), wk =   0.0039062
        k(  460) = (  -0.1250000   0.0721688   0.2373847), wk =   0.0039062
        k(  461) = (  -0.1250000   0.0721688  -0.3165130), wk =   0.0039062
        k(  462) = (  -0.1250000   0.0721688  -0.2373847), wk =   0.0039062
        k(  463) = (  -0.1250000   0.0721688  -0.1582565), wk =   0.0039062
        k(  464) = (  -0.1250000   0.0721688  -0.0791282), wk =   0.0039062
        k(  465) = (  -0.1250000   0.2165065   0.0000000), wk =   0.0039062
        k(  466) = (  -0.1250000   0.2165065   0.0791282), wk =   0.0039062
        k(  467) = (  -0.1250000   0.2165065   0.1582565), wk =   0.0039062
        k(  468) = (  -0.1250000   0.2165065   0.2373847), wk =   0.0039062
        k(  469) = (  -0.1250000   0.2165065  -0.3165130), wk =   0.0039062
        k(  470) = (  -0.1250000   0.2165065  -0.2373847), wk =   0.0039062
        k(  471) = (  -0.1250000   0.2165065  -0.1582565), wk =   0.0039062
        k(  472) = (  -0.1250000   0.2165065  -0.0791282), wk =   0.0039062
        k(  473) = (  -0.1250000   0.3608441   0.0000000), wk =   0.0039062
        k(  474) = (  -0.1250000   0.3608441   0.0791282), wk =   0.0039062
        k(  475) = (  -0.1250000   0.3608441   0.1582565), wk =   0.0039062
        k(  476) = (  -0.1250000   0.3608441   0.2373847), wk =   0.0039062
        k(  477) = (  -0.1250000   0.3608441  -0.3165130), wk =   0.0039062
        k(  478) = (  -0.1250000   0.3608441  -0.2373847), wk =   0.0039062
        k(  479) = (  -0.1250000   0.3608441  -0.1582565), wk =   0.0039062
        k(  480) = (  -0.1250000   0.3608441  -0.0791282), wk =   0.0039062
        k(  481) = (  -0.1250000  -0.6495194   0.0000000), wk =   0.0039062
        k(  482) = (  -0.1250000  -0.6495194   0.0791282), wk =   0.0039062
        k(  483) = (  -0.1250000  -0.6495194   0.1582565), wk =   0.0039062
        k(  484) = (  -0.1250000  -0.6495194   0.2373847), wk =   0.0039062
        k(  485) = (  -0.1250000  -0.6495194  -0.3165130), wk =   0.0039062
        k(  486) = (  -0.1250000  -0.6495194  -0.2373847), wk =   0.0039062
        k(  487) = (  -0.1250000  -0.6495194  -0.1582565), wk =   0.0039062
        k(  488) = (  -0.1250000  -0.6495194  -0.0791282), wk =   0.0039062
        k(  489) = (  -0.1250000  -0.5051817   0.0000000), wk =   0.0039062
        k(  490) = (  -0.1250000  -0.5051817   0.0791282), wk =   0.0039062
        k(  491) = (  -0.1250000  -0.5051817   0.1582565), wk =   0.0039062
        k(  492) = (  -0.1250000  -0.5051817   0.2373847), wk =   0.0039062
        k(  493) = (  -0.1250000  -0.5051817  -0.3165130), wk =   0.0039062
        k(  494) = (  -0.1250000  -0.5051817  -0.2373847), wk =   0.0039062
        k(  495) = (  -0.1250000  -0.5051817  -0.1582565), wk =   0.0039062
        k(  496) = (  -0.1250000  -0.5051817  -0.0791282), wk =   0.0039062
        k(  497) = (  -0.1250000  -0.3608441   0.0000000), wk =   0.0039062
        k(  498) = (  -0.1250000  -0.3608441   0.0791282), wk =   0.0039062
        k(  499) = (  -0.1250000  -0.3608441   0.1582565), wk =   0.0039062
        k(  500) = (  -0.1250000  -0.3608441   0.2373847), wk =   0.0039062
        k(  501) = (  -0.1250000  -0.3608441  -0.3165130), wk =   0.0039062
        k(  502) = (  -0.1250000  -0.3608441  -0.2373847), wk =   0.0039062
        k(  503) = (  -0.1250000  -0.3608441  -0.1582565), wk =   0.0039062
        k(  504) = (  -0.1250000  -0.3608441  -0.0791282), wk =   0.0039062
        k(  505) = (  -0.1250000  -0.2165065   0.0000000), wk =   0.0039062
        k(  506) = (  -0.1250000  -0.2165065   0.0791282), wk =   0.0039062
        k(  507) = (  -0.1250000  -0.2165065   0.1582565), wk =   0.0039062
        k(  508) = (  -0.1250000  -0.2165065   0.2373847), wk =   0.0039062
        k(  509) = (  -0.1250000  -0.2165065  -0.3165130), wk =   0.0039062
        k(  510) = (  -0.1250000  -0.2165065  -0.2373847), wk =   0.0039062
        k(  511) = (  -0.1250000  -0.2165065  -0.1582565), wk =   0.0039062
        k(  512) = (  -0.1250000  -0.2165065  -0.0791282), wk =   0.0039062

                       cryst. coord.
        k(    1) = (   0.0000000   0.0000000   0.0000000), wk =   0.0039062
        k(    2) = (   0.0000000   0.0000000   0.1250000), wk =   0.0039062
        k(    3) = (   0.0000000   0.0000000   0.2500000), wk =   0.0039062
        k(    4) = (   0.0000000   0.0000000   0.3750000), wk =   0.0039062
        k(    5) = (   0.0000000   0.0000000  -0.5000000), wk =   0.0039062
        k(    6) = (   0.0000000   0.0000000  -0.3750000), wk =   0.0039062
        k(    7) = (   0.0000000   0.0000000  -0.2500000), wk =   0.0039062
        k(    8) = (   0.0000000   0.0000000  -0.1250000), wk =   0.0039062
        k(    9) = (   0.0000000   0.1250000   0.0000000), wk =   0.0039062
        k(   10) = (   0.0000000   0.1250000   0.1250000), wk =   0.0039062
        k(   11) = (   0.0000000   0.1250000   0.2500000), wk =   0.0039062
        k(   12) = (   0.0000000   0.1250000   0.3750000), wk =   0.0039062
        k(   13) = (   0.0000000   0.1250000  -0.5000000), wk =   0.0039062
        k(   14) = (   0.0000000   0.1250000  -0.3750000), wk =   0.0039062
        k(   15) = (   0.0000000   0.1250000  -0.2500000), wk =   0.0039062
        k(   16) = (   0.0000000   0.1250000  -0.1250000), wk =   0.0039062
        k(   17) = (   0.0000000   0.2500000   0.0000000), wk =   0.0039062
        k(   18) = (   0.0000000   0.2500000   0.1250000), wk =   0.0039062
        k(   19) = (   0.0000000   0.2500000   0.2500000), wk =   0.0039062
        k(   20) = (   0.0000000   0.2500000   0.3750000), wk =   0.0039062
        k(   21) = (   0.0000000   0.2500000  -0.5000000), wk =   0.0039062
        k(   22) = (   0.0000000   0.2500000  -0.3750000), wk =   0.0039062
        k(   23) = (   0.0000000   0.2500000  -0.2500000), wk =   0.0039062
        k(   24) = (   0.0000000   0.2500000  -0.1250000), wk =   0.0039062
        k(   25) = (   0.0000000   0.3750000   0.0000000), wk =   0.0039062
        k(   26) = (   0.0000000   0.3750000   0.1250000), wk =   0.0039062
        k(   27) = (   0.0000000   0.3750000   0.2500000), wk =   0.0039062
        k(   28) = (   0.0000000   0.3750000   0.3750000), wk =   0.0039062
        k(   29) = (   0.0000000   0.3750000  -0.5000000), wk =   0.0039062
        k(   30) = (   0.0000000   0.3750000  -0.3750000), wk =   0.0039062
        k(   31) = (   0.0000000   0.3750000  -0.2500000), wk =   0.0039062
        k(   32) = (   0.0000000   0.3750000  -0.1250000), wk =   0.0039062
        k(   33) = (   0.0000000  -0.5000000   0.0000000), wk =   0.0039062
        k(   34) = (   0.0000000  -0.5000000   0.1250000), wk =   0.0039062
        k(   35) = (   0.0000000  -0.5000000   0.2500000), wk =   0.0039062
        k(   36) = (   0.0000000  -0.5000000   0.3750000), wk =   0.0039062
        k(   37) = (   0.0000000  -0.5000000  -0.5000000), wk =   0.0039062
        k(   38) = (   0.0000000  -0.5000000  -0.3750000), wk =   0.0039062
        k(   39) = (   0.0000000  -0.5000000  -0.2500000), wk =   0.0039062
        k(   40) = (   0.0000000  -0.5000000  -0.1250000), wk =   0.0039062
        k(   41) = (   0.0000000  -0.3750000   0.0000000), wk =   0.0039062
        k(   42) = (   0.0000000  -0.3750000   0.1250000), wk =   0.0039062
        k(   43) = (   0.0000000  -0.3750000   0.2500000), wk =   0.0039062
        k(   44) = (   0.0000000  -0.3750000   0.3750000), wk =   0.0039062
        k(   45) = (   0.0000000  -0.3750000  -0.5000000), wk =   0.0039062
        k(   46) = (   0.0000000  -0.3750000  -0.3750000), wk =   0.0039062
        k(   47) = (   0.0000000  -0.3750000  -0.2500000), wk =   0.0039062
        k(   48) = (   0.0000000  -0.3750000  -0.1250000), wk =   0.0039062
        k(   49) = (   0.0000000  -0.2500000   0.0000000), wk =   0.0039062
        k(   50) = (   0.0000000  -0.2500000   0.1250000), wk =   0.0039062
        k(   51) = (   0.0000000  -0.2500000   0.2500000), wk =   0.0039062
        k(   52) = (   0.0000000  -0.2500000   0.3750000), wk =   0.0039062
        k(   53) = (   0.0000000  -0.2500000  -0.5000000), wk =   0.0039062
        k(   54) = (   0.0000000  -0.2500000  -0.3750000), wk =   0.0039062
        k(   55) = (   0.0000000  -0.2500000  -0.2500000), wk =   0.0039062
        k(   56) = (   0.0000000  -0.2500000  -0.1250000), wk =   0.0039062
        k(   57) = (   0.0000000  -0.1250000   0.0000000), wk =   0.0039062
        k(   58) = (   0.0000000  -0.1250000   0.1250000), wk =   0.0039062
        k(   59) = (   0.0000000  -0.1250000   0.2500000), wk =   0.0039062
        k(   60) = (   0.0000000  -0.1250000   0.3750000), wk =   0.0039062
        k(   61) = (   0.0000000  -0.1250000  -0.5000000), wk =   0.0039062
        k(   62) = (   0.0000000  -0.1250000  -0.3750000), wk =   0.0039062
        k(   63) = (   0.0000000  -0.1250000  -0.2500000), wk =   0.0039062
        k(   64) = (   0.0000000  -0.1250000  -0.1250000), wk =   0.0039062
        k(   65) = (   0.1250000   0.0000000   0.0000000), wk =   0.0039062
        k(   66) = (   0.1250000   0.0000000   0.1250000), wk =   0.0039062
        k(   67) = (   0.1250000   0.0000000   0.2500000), wk =   0.0039062
        k(   68) = (   0.1250000   0.0000000   0.3750000), wk =   0.0039062
        k(   69) = (   0.1250000   0.0000000  -0.5000000), wk =   0.0039062
        k(   70) = (   0.1250000   0.0000000  -0.3750000), wk =   0.0039062
        k(   71) = (   0.1250000   0.0000000  -0.2500000), wk =   0.0039062
        k(   72) = (   0.1250000   0.0000000  -0.1250000), wk =   0.0039062
        k(   73) = (   0.1250000   0.1250000   0.0000000), wk =   0.0039062
        k(   74) = (   0.1250000   0.1250000   0.1250000), wk =   0.0039062
        k(   75) = (   0.1250000   0.1250000   0.2500000), wk =   0.0039062
        k(   76) = (   0.1250000   0.1250000   0.3750000), wk =   0.0039062
        k(   77) = (   0.1250000   0.1250000  -0.5000000), wk =   0.0039062
        k(   78) = (   0.1250000   0.1250000  -0.3750000), wk =   0.0039062
        k(   79) = (   0.1250000   0.1250000  -0.2500000), wk =   0.0039062
        k(   80) = (   0.1250000   0.1250000  -0.1250000), wk =   0.0039062
        k(   81) = (   0.1250000   0.2500000   0.0000000), wk =   0.0039062
        k(   82) = (   0.1250000   0.2500000   0.1250000), wk =   0.0039062
        k(   83) = (   0.1250000   0.2500000   0.2500000), wk =   0.0039062
        k(   84) = (   0.1250000   0.2500000   0.3750000), wk =   0.0039062
        k(   85) = (   0.1250000   0.2500000  -0.5000000), wk =   0.0039062
        k(   86) = (   0.1250000   0.2500000  -0.3750000), wk =   0.0039062
        k(   87) = (   0.1250000   0.2500000  -0.2500000), wk =   0.0039062
        k(   88) = (   0.1250000   0.2500000  -0.1250000), wk =   0.0039062
        k(   89) = (   0.1250000   0.3750000   0.0000000), wk =   0.0039062
        k(   90) = (   0.1250000   0.3750000   0.1250000), wk =   0.0039062
        k(   91) = (   0.1250000   0.3750000   0.2500000), wk =   0.0039062
        k(   92) = (   0.1250000   0.3750000   0.3750000), wk =   0.0039062
        k(   93) = (   0.1250000   0.3750000  -0.5000000), wk =   0.0039062
        k(   94) = (   0.1250000   0.3750000  -0.3750000), wk =   0.0039062
        k(   95) = (   0.1250000   0.3750000  -0.2500000), wk =   0.0039062
        k(   96) = (   0.1250000   0.3750000  -0.1250000), wk =   0.0039062
        k(   97) = (   0.1250000  -0.5000000   0.0000000), wk =   0.0039062
        k(   98) = (   0.1250000  -0.5000000   0.1250000), wk =   0.0039062
        k(   99) = (   0.1250000  -0.5000000   0.2500000), wk =   0.0039062
        k(  100) = (   0.1250000  -0.5000000   0.3750000), wk =   0.0039062
        k(  101) = (   0.1250000  -0.5000000  -0.5000000), wk =   0.0039062
        k(  102) = (   0.1250000  -0.5000000  -0.3750000), wk =   0.0039062
        k(  103) = (   0.1250000  -0.5000000  -0.2500000), wk =   0.0039062
        k(  104) = (   0.1250000  -0.5000000  -0.1250000), wk =   0.0039062
        k(  105) = (   0.1250000  -0.3750000   0.0000000), wk =   0.0039062
        k(  106) = (   0.1250000  -0.3750000   0.1250000), wk =   0.0039062
        k(  107) = (   0.1250000  -0.3750000   0.2500000), wk =   0.0039062
        k(  108) = (   0.1250000  -0.3750000   0.3750000), wk =   0.0039062
        k(  109) = (   0.1250000  -0.3750000  -0.5000000), wk =   0.0039062
        k(  110) = (   0.1250000  -0.3750000  -0.3750000), wk =   0.0039062
        k(  111) = (   0.1250000  -0.3750000  -0.2500000), wk =   0.0039062
        k(  112) = (   0.1250000  -0.3750000  -0.1250000), wk =   0.0039062
        k(  113) = (   0.1250000  -0.2500000   0.0000000), wk =   0.0039062
        k(  114) = (   0.1250000  -0.2500000   0.1250000), wk =   0.0039062
        k(  115) = (   0.1250000  -0.2500000   0.2500000), wk =   0.0039062
        k(  116) = (   0.1250000  -0.2500000   0.3750000), wk =   0.0039062
        k(  117) = (   0.1250000  -0.2500000  -0.5000000), wk =   0.0039062
        k(  118) = (   0.1250000  -0.2500000  -0.3750000), wk =   0.0039062
        k(  119) = (   0.1250000  -0.2500000  -0.2500000), wk =   0.0039062
        k(  120) = (   0.1250000  -0.2500000  -0.1250000), wk =   0.0039062
        k(  121) = (   0.1250000  -0.1250000   0.0000000), wk =   0.0039062
        k(  122) = (   0.1250000  -0.1250000   0.1250000), wk =   0.0039062
        k(  123) = (   0.1250000  -0.1250000   0.2500000), wk =   0.0039062
        k(  124) = (   0.1250000  -0.1250000   0.3750000), wk =   0.0039062
        k(  125) = (   0.1250000  -0.1250000  -0.5000000), wk =   0.0039062
        k(  126) = (   0.1250000  -0.1250000  -0.3750000), wk =   0.0039062
        k(  127) = (   0.1250000  -0.1250000  -0.2500000), wk =   0.0039062
        k(  128) = (   0.1250000  -0.1250000  -0.1250000), wk =   0.0039062
        k(  129) = (   0.2500000   0.0000000   0.0000000), wk =   0.0039062
        k(  130) = (   0.2500000   0.0000000   0.1250000), wk =   0.0039062
        k(  131) = (   0.2500000   0.0000000   0.2500000), wk =   0.0039062
        k(  132) = (   0.2500000   0.0000000   0.3750000), wk =   0.0039062
        k(  133) = (   0.2500000   0.0000000  -0.5000000), wk =   0.0039062
        k(  134) = (   0.2500000   0.0000000  -0.3750000), wk =   0.0039062
        k(  135) = (   0.2500000   0.0000000  -0.2500000), wk =   0.0039062
        k(  136) = (   0.2500000   0.0000000  -0.1250000), wk =   0.0039062
        k(  137) = (   0.2500000   0.1250000   0.0000000), wk =   0.0039062
        k(  138) = (   0.2500000   0.1250000   0.1250000), wk =   0.0039062
        k(  139) = (   0.2500000   0.1250000   0.2500000), wk =   0.0039062
        k(  140) = (   0.2500000   0.1250000   0.3750000), wk =   0.0039062
        k(  141) = (   0.2500000   0.1250000  -0.5000000), wk =   0.0039062
        k(  142) = (   0.2500000   0.1250000  -0.3750000), wk =   0.0039062
        k(  143) = (   0.2500000   0.1250000  -0.2500000), wk =   0.0039062
        k(  144) = (   0.2500000   0.1250000  -0.1250000), wk =   0.0039062
        k(  145) = (   0.2500000   0.2500000   0.0000000), wk =   0.0039062
        k(  146) = (   0.2500000   0.2500000   0.1250000), wk =   0.0039062
        k(  147) = (   0.2500000   0.2500000   0.2500000), wk =   0.0039062
        k(  148) = (   0.2500000   0.2500000   0.3750000), wk =   0.0039062
        k(  149) = (   0.2500000   0.2500000  -0.5000000), wk =   0.0039062
        k(  150) = (   0.2500000   0.2500000  -0.3750000), wk =   0.0039062
        k(  151) = (   0.2500000   0.2500000  -0.2500000), wk =   0.0039062
        k(  152) = (   0.2500000   0.2500000  -0.1250000), wk =   0.0039062
        k(  153) = (   0.2500000   0.3750000   0.0000000), wk =   0.0039062
        k(  154) = (   0.2500000   0.3750000   0.1250000), wk =   0.0039062
        k(  155) = (   0.2500000   0.3750000   0.2500000), wk =   0.0039062
        k(  156) = (   0.2500000   0.3750000   0.3750000), wk =   0.0039062
        k(  157) = (   0.2500000   0.3750000  -0.5000000), wk =   0.0039062
        k(  158) = (   0.2500000   0.3750000  -0.3750000), wk =   0.0039062
        k(  159) = (   0.2500000   0.3750000  -0.2500000), wk =   0.0039062
        k(  160) = (   0.2500000   0.3750000  -0.1250000), wk =   0.0039062
        k(  161) = (   0.2500000  -0.5000000   0.0000000), wk =   0.0039062
        k(  162) = (   0.2500000  -0.5000000   0.1250000), wk =   0.0039062
        k(  163) = (   0.2500000  -0.5000000   0.2500000), wk =   0.0039062
        k(  164) = (   0.2500000  -0.5000000   0.3750000), wk =   0.0039062
        k(  165) = (   0.2500000  -0.5000000  -0.5000000), wk =   0.0039062
        k(  166) = (   0.2500000  -0.5000000  -0.3750000), wk =   0.0039062
        k(  167) = (   0.2500000  -0.5000000  -0.2500000), wk =   0.0039062
        k(  168) = (   0.2500000  -0.5000000  -0.1250000), wk =   0.0039062
        k(  169) = (   0.2500000  -0.3750000   0.0000000), wk =   0.0039062
        k(  170) = (   0.2500000  -0.3750000   0.1250000), wk =   0.0039062
        k(  171) = (   0.2500000  -0.3750000   0.2500000), wk =   0.0039062
        k(  172) = (   0.2500000  -0.3750000   0.3750000), wk =   0.0039062
        k(  173) = (   0.2500000  -0.3750000  -0.5000000), wk =   0.0039062
        k(  174) = (   0.2500000  -0.3750000  -0.3750000), wk =   0.0039062
        k(  175) = (   0.2500000  -0.3750000  -0.2500000), wk =   0.0039062
        k(  176) = (   0.2500000  -0.3750000  -0.1250000), wk =   0.0039062
        k(  177) = (   0.2500000  -0.2500000   0.0000000), wk =   0.0039062
        k(  178) = (   0.2500000  -0.2500000   0.1250000), wk =   0.0039062
        k(  179) = (   0.2500000  -0.2500000   0.2500000), wk =   0.0039062
        k(  180) = (   0.2500000  -0.2500000   0.3750000), wk =   0.0039062
        k(  181) = (   0.2500000  -0.2500000  -0.5000000), wk =   0.0039062
        k(  182) = (   0.2500000  -0.2500000  -0.3750000), wk =   0.0039062
        k(  183) = (   0.2500000  -0.2500000  -0.2500000), wk =   0.0039062
        k(  184) = (   0.2500000  -0.2500000  -0.1250000), wk =   0.0039062
        k(  185) = (   0.2500000  -0.1250000   0.0000000), wk =   0.0039062
        k(  186) = (   0.2500000  -0.1250000   0.1250000), wk =   0.0039062
        k(  187) = (   0.2500000  -0.1250000   0.2500000), wk =   0.0039062
        k(  188) = (   0.2500000  -0.1250000   0.3750000), wk =   0.0039062
        k(  189) = (   0.2500000  -0.1250000  -0.5000000), wk =   0.0039062
        k(  190) = (   0.2500000  -0.1250000  -0.3750000), wk =   0.0039062
        k(  191) = (   0.2500000  -0.1250000  -0.2500000), wk =   0.0039062
        k(  192) = (   0.2500000  -0.1250000  -0.1250000), wk =   0.0039062
        k(  193) = (   0.3750000   0.0000000   0.0000000), wk =   0.0039062
        k(  194) = (   0.3750000   0.0000000   0.1250000), wk =   0.0039062
        k(  195) = (   0.3750000   0.0000000   0.2500000), wk =   0.0039062
        k(  196) = (   0.3750000   0.0000000   0.3750000), wk =   0.0039062
        k(  197) = (   0.3750000   0.0000000  -0.5000000), wk =   0.0039062
        k(  198) = (   0.3750000   0.0000000  -0.3750000), wk =   0.0039062
        k(  199) = (   0.3750000   0.0000000  -0.2500000), wk =   0.0039062
        k(  200) = (   0.3750000   0.0000000  -0.1250000), wk =   0.0039062
        k(  201) = (   0.3750000   0.1250000   0.0000000), wk =   0.0039062
        k(  202) = (   0.3750000   0.1250000   0.1250000), wk =   0.0039062
        k(  203) = (   0.3750000   0.1250000   0.2500000), wk =   0.0039062
        k(  204) = (   0.3750000   0.1250000   0.3750000), wk =   0.0039062
        k(  205) = (   0.3750000   0.1250000  -0.5000000), wk =   0.0039062
        k(  206) = (   0.3750000   0.1250000  -0.3750000), wk =   0.0039062
        k(  207) = (   0.3750000   0.1250000  -0.2500000), wk =   0.0039062
        k(  208) = (   0.3750000   0.1250000  -0.1250000), wk =   0.0039062
        k(  209) = (   0.3750000   0.2500000   0.0000000), wk =   0.0039062
        k(  210) = (   0.3750000   0.2500000   0.1250000), wk =   0.0039062
        k(  211) = (   0.3750000   0.2500000   0.2500000), wk =   0.0039062
        k(  212) = (   0.3750000   0.2500000   0.3750000), wk =   0.0039062
        k(  213) = (   0.3750000   0.2500000  -0.5000000), wk =   0.0039062
        k(  214) = (   0.3750000   0.2500000  -0.3750000), wk =   0.0039062
        k(  215) = (   0.3750000   0.2500000  -0.2500000), wk =   0.0039062
        k(  216) = (   0.3750000   0.2500000  -0.1250000), wk =   0.0039062
        k(  217) = (   0.3750000   0.3750000   0.0000000), wk =   0.0039062
        k(  218) = (   0.3750000   0.3750000   0.1250000), wk =   0.0039062
        k(  219) = (   0.3750000   0.3750000   0.2500000), wk =   0.0039062
        k(  220) = (   0.3750000   0.3750000   0.3750000), wk =   0.0039062
        k(  221) = (   0.3750000   0.3750000  -0.5000000), wk =   0.0039062
        k(  222) = (   0.3750000   0.3750000  -0.3750000), wk =   0.0039062
        k(  223) = (   0.3750000   0.3750000  -0.2500000), wk =   0.0039062
        k(  224) = (   0.3750000   0.3750000  -0.1250000), wk =   0.0039062
        k(  225) = (   0.3750000  -0.5000000   0.0000000), wk =   0.0039062
        k(  226) = (   0.3750000  -0.5000000   0.1250000), wk =   0.0039062
        k(  227) = (   0.3750000  -0.5000000   0.2500000), wk =   0.0039062
        k(  228) = (   0.3750000  -0.5000000   0.3750000), wk =   0.0039062
        k(  229) = (   0.3750000  -0.5000000  -0.5000000), wk =   0.0039062
        k(  230) = (   0.3750000  -0.5000000  -0.3750000), wk =   0.0039062
        k(  231) = (   0.3750000  -0.5000000  -0.2500000), wk =   0.0039062
        k(  232) = (   0.3750000  -0.5000000  -0.1250000), wk =   0.0039062
        k(  233) = (   0.3750000  -0.3750000   0.0000000), wk =   0.0039062
        k(  234) = (   0.3750000  -0.3750000   0.1250000), wk =   0.0039062
        k(  235) = (   0.3750000  -0.3750000   0.2500000), wk =   0.0039062
        k(  236) = (   0.3750000  -0.3750000   0.3750000), wk =   0.0039062
        k(  237) = (   0.3750000  -0.3750000  -0.5000000), wk =   0.0039062
        k(  238) = (   0.3750000  -0.3750000  -0.3750000), wk =   0.0039062
        k(  239) = (   0.3750000  -0.3750000  -0.2500000), wk =   0.0039062
        k(  240) = (   0.3750000  -0.3750000  -0.1250000), wk =   0.0039062
        k(  241) = (   0.3750000  -0.2500000   0.0000000), wk =   0.0039062
        k(  242) = (   0.3750000  -0.2500000   0.1250000), wk =   0.0039062
        k(  243) = (   0.3750000  -0.2500000   0.2500000), wk =   0.0039062
        k(  244) = (   0.3750000  -0.2500000   0.3750000), wk =   0.0039062
        k(  245) = (   0.3750000  -0.2500000  -0.5000000), wk =   0.0039062
        k(  246) = (   0.3750000  -0.2500000  -0.3750000), wk =   0.0039062
        k(  247) = (   0.3750000  -0.2500000  -0.2500000), wk =   0.0039062
        k(  248) = (   0.3750000  -0.2500000  -0.1250000), wk =   0.0039062
        k(  249) = (   0.3750000  -0.1250000   0.0000000), wk =   0.0039062
        k(  250) = (   0.3750000  -0.1250000   0.1250000), wk =   0.0039062
        k(  251) = (   0.3750000  -0.1250000   0.2500000), wk =   0.0039062
        k(  252) = (   0.3750000  -0.1250000   0.3750000), wk =   0.0039062
        k(  253) = (   0.3750000  -0.1250000  -0.5000000), wk =   0.0039062
        k(  254) = (   0.3750000  -0.1250000  -0.3750000), wk =   0.0039062
        k(  255) = (   0.3750000  -0.1250000  -0.2500000), wk =   0.0039062
        k(  256) = (   0.3750000  -0.1250000  -0.1250000), wk =   0.0039062
        k(  257) = (  -0.5000000   0.0000000   0.0000000), wk =   0.0039062
        k(  258) = (  -0.5000000   0.0000000   0.1250000), wk =   0.0039062
        k(  259) = (  -0.5000000   0.0000000   0.2500000), wk =   0.0039062
        k(  260) = (  -0.5000000   0.0000000   0.3750000), wk =   0.0039062
        k(  261) = (  -0.5000000   0.0000000  -0.5000000), wk =   0.0039062
        k(  262) = (  -0.5000000   0.0000000  -0.3750000), wk =   0.0039062
        k(  263) = (  -0.5000000   0.0000000  -0.2500000), wk =   0.0039062
        k(  264) = (  -0.5000000   0.0000000  -0.1250000), wk =   0.0039062
        k(  265) = (  -0.5000000   0.1250000   0.0000000), wk =   0.0039062
        k(  266) = (  -0.5000000   0.1250000   0.1250000), wk =   0.0039062
        k(  267) = (  -0.5000000   0.1250000   0.2500000), wk =   0.0039062
        k(  268) = (  -0.5000000   0.1250000   0.3750000), wk =   0.0039062
        k(  269) = (  -0.5000000   0.1250000  -0.5000000), wk =   0.0039062
        k(  270) = (  -0.5000000   0.1250000  -0.3750000), wk =   0.0039062
        k(  271) = (  -0.5000000   0.1250000  -0.2500000), wk =   0.0039062
        k(  272) = (  -0.5000000   0.1250000  -0.1250000), wk =   0.0039062
        k(  273) = (  -0.5000000   0.2500000   0.0000000), wk =   0.0039062
        k(  274) = (  -0.5000000   0.2500000   0.1250000), wk =   0.0039062
        k(  275) = (  -0.5000000   0.2500000   0.2500000), wk =   0.0039062
        k(  276) = (  -0.5000000   0.2500000   0.3750000), wk =   0.0039062
        k(  277) = (  -0.5000000   0.2500000  -0.5000000), wk =   0.0039062
        k(  278) = (  -0.5000000   0.2500000  -0.3750000), wk =   0.0039062
        k(  279) = (  -0.5000000   0.2500000  -0.2500000), wk =   0.0039062
        k(  280) = (  -0.5000000   0.2500000  -0.1250000), wk =   0.0039062
        k(  281) = (  -0.5000000   0.3750000   0.0000000), wk =   0.0039062
        k(  282) = (  -0.5000000   0.3750000   0.1250000), wk =   0.0039062
        k(  283) = (  -0.5000000   0.3750000   0.2500000), wk =   0.0039062
        k(  284) = (  -0.5000000   0.3750000   0.3750000), wk =   0.0039062
        k(  285) = (  -0.5000000   0.3750000  -0.5000000), wk =   0.0039062
        k(  286) = (  -0.5000000   0.3750000  -0.3750000), wk =   0.0039062
        k(  287) = (  -0.5000000   0.3750000  -0.2500000), wk =   0.0039062
        k(  288) = (  -0.5000000   0.3750000  -0.1250000), wk =   0.0039062
        k(  289) = (  -0.5000000  -0.5000000   0.0000000), wk =   0.0039062
        k(  290) = (  -0.5000000  -0.5000000   0.1250000), wk =   0.0039062
        k(  291) = (  -0.5000000  -0.5000000   0.2500000), wk =   0.0039062
        k(  292) = (  -0.5000000  -0.5000000   0.3750000), wk =   0.0039062
        k(  293) = (  -0.5000000  -0.5000000  -0.5000000), wk =   0.0039062
        k(  294) = (  -0.5000000  -0.5000000  -0.3750000), wk =   0.0039062
        k(  295) = (  -0.5000000  -0.5000000  -0.2500000), wk =   0.0039062
        k(  296) = (  -0.5000000  -0.5000000  -0.1250000), wk =   0.0039062
        k(  297) = (  -0.5000000  -0.3750000   0.0000000), wk =   0.0039062
        k(  298) = (  -0.5000000  -0.3750000   0.1250000), wk =   0.0039062
        k(  299) = (  -0.5000000  -0.3750000   0.2500000), wk =   0.0039062
        k(  300) = (  -0.5000000  -0.3750000   0.3750000), wk =   0.0039062
        k(  301) = (  -0.5000000  -0.3750000  -0.5000000), wk =   0.0039062
        k(  302) = (  -0.5000000  -0.3750000  -0.3750000), wk =   0.0039062
        k(  303) = (  -0.5000000  -0.3750000  -0.2500000), wk =   0.0039062
        k(  304) = (  -0.5000000  -0.3750000  -0.1250000), wk =   0.0039062
        k(  305) = (  -0.5000000  -0.2500000   0.0000000), wk =   0.0039062
        k(  306) = (  -0.5000000  -0.2500000   0.1250000), wk =   0.0039062
        k(  307) = (  -0.5000000  -0.2500000   0.2500000), wk =   0.0039062
        k(  308) = (  -0.5000000  -0.2500000   0.3750000), wk =   0.0039062
        k(  309) = (  -0.5000000  -0.2500000  -0.5000000), wk =   0.0039062
        k(  310) = (  -0.5000000  -0.2500000  -0.3750000), wk =   0.0039062
        k(  311) = (  -0.5000000  -0.2500000  -0.2500000), wk =   0.0039062
        k(  312) = (  -0.5000000  -0.2500000  -0.1250000), wk =   0.0039062
        k(  313) = (  -0.5000000  -0.1250000   0.0000000), wk =   0.0039062
        k(  314) = (  -0.5000000  -0.1250000   0.1250000), wk =   0.0039062
        k(  315) = (  -0.5000000  -0.1250000   0.2500000), wk =   0.0039062
        k(  316) = (  -0.5000000  -0.1250000   0.3750000), wk =   0.0039062
        k(  317) = (  -0.5000000  -0.1250000  -0.5000000), wk =   0.0039062
        k(  318) = (  -0.5000000  -0.1250000  -0.3750000), wk =   0.0039062
        k(  319) = (  -0.5000000  -0.1250000  -0.2500000), wk =   0.0039062
        k(  320) = (  -0.5000000  -0.1250000  -0.1250000), wk =   0.0039062
        k(  321) = (  -0.3750000   0.0000000   0.0000000), wk =   0.0039062
        k(  322) = (  -0.3750000   0.0000000   0.1250000), wk =   0.0039062
        k(  323) = (  -0.3750000   0.0000000   0.2500000), wk =   0.0039062
        k(  324) = (  -0.3750000   0.0000000   0.3750000), wk =   0.0039062
        k(  325) = (  -0.3750000   0.0000000  -0.5000000), wk =   0.0039062
        k(  326) = (  -0.3750000   0.0000000  -0.3750000), wk =   0.0039062
        k(  327) = (  -0.3750000   0.0000000  -0.2500000), wk =   0.0039062
        k(  328) = (  -0.3750000   0.0000000  -0.1250000), wk =   0.0039062
        k(  329) = (  -0.3750000   0.1250000   0.0000000), wk =   0.0039062
        k(  330) = (  -0.3750000   0.1250000   0.1250000), wk =   0.0039062
        k(  331) = (  -0.3750000   0.1250000   0.2500000), wk =   0.0039062
        k(  332) = (  -0.3750000   0.1250000   0.3750000), wk =   0.0039062
        k(  333) = (  -0.3750000   0.1250000  -0.5000000), wk =   0.0039062
        k(  334) = (  -0.3750000   0.1250000  -0.3750000), wk =   0.0039062
        k(  335) = (  -0.3750000   0.1250000  -0.2500000), wk =   0.0039062
        k(  336) = (  -0.3750000   0.1250000  -0.1250000), wk =   0.0039062
        k(  337) = (  -0.3750000   0.2500000   0.0000000), wk =   0.0039062
        k(  338) = (  -0.3750000   0.2500000   0.1250000), wk =   0.0039062
        k(  339) = (  -0.3750000   0.2500000   0.2500000), wk =   0.0039062
        k(  340) = (  -0.3750000   0.2500000   0.3750000), wk =   0.0039062
        k(  341) = (  -0.3750000   0.2500000  -0.5000000), wk =   0.0039062
        k(  342) = (  -0.3750000   0.2500000  -0.3750000), wk =   0.0039062
        k(  343) = (  -0.3750000   0.2500000  -0.2500000), wk =   0.0039062
        k(  344) = (  -0.3750000   0.2500000  -0.1250000), wk =   0.0039062
        k(  345) = (  -0.3750000   0.3750000   0.0000000), wk =   0.0039062
        k(  346) = (  -0.3750000   0.3750000   0.1250000), wk =   0.0039062
        k(  347) = (  -0.3750000   0.3750000   0.2500000), wk =   0.0039062
        k(  348) = (  -0.3750000   0.3750000   0.3750000), wk =   0.0039062
        k(  349) = (  -0.3750000   0.3750000  -0.5000000), wk =   0.0039062
        k(  350) = (  -0.3750000   0.3750000  -0.3750000), wk =   0.0039062
        k(  351) = (  -0.3750000   0.3750000  -0.2500000), wk =   0.0039062
        k(  352) = (  -0.3750000   0.3750000  -0.1250000), wk =   0.0039062
        k(  353) = (  -0.3750000  -0.5000000   0.0000000), wk =   0.0039062
        k(  354) = (  -0.3750000  -0.5000000   0.1250000), wk =   0.0039062
        k(  355) = (  -0.3750000  -0.5000000   0.2500000), wk =   0.0039062
        k(  356) = (  -0.3750000  -0.5000000   0.3750000), wk =   0.0039062
        k(  357) = (  -0.3750000  -0.5000000  -0.5000000), wk =   0.0039062
        k(  358) = (  -0.3750000  -0.5000000  -0.3750000), wk =   0.0039062
        k(  359) = (  -0.3750000  -0.5000000  -0.2500000), wk =   0.0039062
        k(  360) = (  -0.3750000  -0.5000000  -0.1250000), wk =   0.0039062
        k(  361) = (  -0.3750000  -0.3750000   0.0000000), wk =   0.0039062
        k(  362) = (  -0.3750000  -0.3750000   0.1250000), wk =   0.0039062
        k(  363) = (  -0.3750000  -0.3750000   0.2500000), wk =   0.0039062
        k(  364) = (  -0.3750000  -0.3750000   0.3750000), wk =   0.0039062
        k(  365) = (  -0.3750000  -0.3750000  -0.5000000), wk =   0.0039062
        k(  366) = (  -0.3750000  -0.3750000  -0.3750000), wk =   0.0039062
        k(  367) = (  -0.3750000  -0.3750000  -0.2500000), wk =   0.0039062
        k(  368) = (  -0.3750000  -0.3750000  -0.1250000), wk =   0.0039062
        k(  369) = (  -0.3750000  -0.2500000   0.0000000), wk =   0.0039062
        k(  370) = (  -0.3750000  -0.2500000   0.1250000), wk =   0.0039062
        k(  371) = (  -0.3750000  -0.2500000   0.2500000), wk =   0.0039062
        k(  372) = (  -0.3750000  -0.2500000   0.3750000), wk =   0.0039062
        k(  373) = (  -0.3750000  -0.2500000  -0.5000000), wk =   0.0039062
        k(  374) = (  -0.3750000  -0.2500000  -0.3750000), wk =   0.0039062
        k(  375) = (  -0.3750000  -0.2500000  -0.2500000), wk =   0.0039062
        k(  376) = (  -0.3750000  -0.2500000  -0.1250000), wk =   0.0039062
        k(  377) = (  -0.3750000  -0.1250000   0.0000000), wk =   0.0039062
        k(  378) = (  -0.3750000  -0.1250000   0.1250000), wk =   0.0039062
        k(  379) = (  -0.3750000  -0.1250000   0.2500000), wk =   0.0039062
        k(  380) = (  -0.3750000  -0.1250000   0.3750000), wk =   0.0039062
        k(  381) = (  -0.3750000  -0.1250000  -0.5000000), wk =   0.0039062
        k(  382) = (  -0.3750000  -0.1250000  -0.3750000), wk =   0.0039062
        k(  383) = (  -0.3750000  -0.1250000  -0.2500000), wk =   0.0039062
        k(  384) = (  -0.3750000  -0.1250000  -0.1250000), wk =   0.0039062
        k(  385) = (  -0.2500000   0.0000000   0.0000000), wk =   0.0039062
        k(  386) = (  -0.2500000   0.0000000   0.1250000), wk =   0.0039062
        k(  387) = (  -0.2500000   0.0000000   0.2500000), wk =   0.0039062
        k(  388) = (  -0.2500000   0.0000000   0.3750000), wk =   0.0039062
        k(  389) = (  -0.2500000   0.0000000  -0.5000000), wk =   0.0039062
        k(  390) = (  -0.2500000   0.0000000  -0.3750000), wk =   0.0039062
        k(  391) = (  -0.2500000   0.0000000  -0.2500000), wk =   0.0039062
        k(  392) = (  -0.2500000   0.0000000  -0.1250000), wk =   0.0039062
        k(  393) = (  -0.2500000   0.1250000   0.0000000), wk =   0.0039062
        k(  394) = (  -0.2500000   0.1250000   0.1250000), wk =   0.0039062
        k(  395) = (  -0.2500000   0.1250000   0.2500000), wk =   0.0039062
        k(  396) = (  -0.2500000   0.1250000   0.3750000), wk =   0.0039062
        k(  397) = (  -0.2500000   0.1250000  -0.5000000), wk =   0.0039062
        k(  398) = (  -0.2500000   0.1250000  -0.3750000), wk =   0.0039062
        k(  399) = (  -0.2500000   0.1250000  -0.2500000), wk =   0.0039062
        k(  400) = (  -0.2500000   0.1250000  -0.1250000), wk =   0.0039062
        k(  401) = (  -0.2500000   0.2500000   0.0000000), wk =   0.0039062
        k(  402) = (  -0.2500000   0.2500000   0.1250000), wk =   0.0039062
        k(  403) = (  -0.2500000   0.2500000   0.2500000), wk =   0.0039062
        k(  404) = (  -0.2500000   0.2500000   0.3750000), wk =   0.0039062
        k(  405) = (  -0.2500000   0.2500000  -0.5000000), wk =   0.0039062
        k(  406) = (  -0.2500000   0.2500000  -0.3750000), wk =   0.0039062
        k(  407) = (  -0.2500000   0.2500000  -0.2500000), wk =   0.0039062
        k(  408) = (  -0.2500000   0.2500000  -0.1250000), wk =   0.0039062
        k(  409) = (  -0.2500000   0.3750000   0.0000000), wk =   0.0039062
        k(  410) = (  -0.2500000   0.3750000   0.1250000), wk =   0.0039062
        k(  411) = (  -0.2500000   0.3750000   0.2500000), wk =   0.0039062
        k(  412) = (  -0.2500000   0.3750000   0.3750000), wk =   0.0039062
        k(  413) = (  -0.2500000   0.3750000  -0.5000000), wk =   0.0039062
        k(  414) = (  -0.2500000   0.3750000  -0.3750000), wk =   0.0039062
        k(  415) = (  -0.2500000   0.3750000  -0.2500000), wk =   0.0039062
        k(  416) = (  -0.2500000   0.3750000  -0.1250000), wk =   0.0039062
        k(  417) = (  -0.2500000  -0.5000000   0.0000000), wk =   0.0039062
        k(  418) = (  -0.2500000  -0.5000000   0.1250000), wk =   0.0039062
        k(  419) = (  -0.2500000  -0.5000000   0.2500000), wk =   0.0039062
        k(  420) = (  -0.2500000  -0.5000000   0.3750000), wk =   0.0039062
        k(  421) = (  -0.2500000  -0.5000000  -0.5000000), wk =   0.0039062
        k(  422) = (  -0.2500000  -0.5000000  -0.3750000), wk =   0.0039062
        k(  423) = (  -0.2500000  -0.5000000  -0.2500000), wk =   0.0039062
        k(  424) = (  -0.2500000  -0.5000000  -0.1250000), wk =   0.0039062
        k(  425) = (  -0.2500000  -0.3750000   0.0000000), wk =   0.0039062
        k(  426) = (  -0.2500000  -0.3750000   0.1250000), wk =   0.0039062
        k(  427) = (  -0.2500000  -0.3750000   0.2500000), wk =   0.0039062
        k(  428) = (  -0.2500000  -0.3750000   0.3750000), wk =   0.0039062
        k(  429) = (  -0.2500000  -0.3750000  -0.5000000), wk =   0.0039062
        k(  430) = (  -0.2500000  -0.3750000  -0.3750000), wk =   0.0039062
        k(  431) = (  -0.2500000  -0.3750000  -0.2500000), wk =   0.0039062
        k(  432) = (  -0.2500000  -0.3750000  -0.1250000), wk =   0.0039062
        k(  433) = (  -0.2500000  -0.2500000   0.0000000), wk =   0.0039062
        k(  434) = (  -0.2500000  -0.2500000   0.1250000), wk =   0.0039062
        k(  435) = (  -0.2500000  -0.2500000   0.2500000), wk =   0.0039062
        k(  436) = (  -0.2500000  -0.2500000   0.3750000), wk =   0.0039062
        k(  437) = (  -0.2500000  -0.2500000  -0.5000000), wk =   0.0039062
        k(  438) = (  -0.2500000  -0.2500000  -0.3750000), wk =   0.0039062
        k(  439) = (  -0.2500000  -0.2500000  -0.2500000), wk =   0.0039062
        k(  440) = (  -0.2500000  -0.2500000  -0.1250000), wk =   0.0039062
        k(  441) = (  -0.2500000  -0.1250000   0.0000000), wk =   0.0039062
        k(  442) = (  -0.2500000  -0.1250000   0.1250000), wk =   0.0039062
        k(  443) = (  -0.2500000  -0.1250000   0.2500000), wk =   0.0039062
        k(  444) = (  -0.2500000  -0.1250000   0.3750000), wk =   0.0039062
        k(  445) = (  -0.2500000  -0.1250000  -0.5000000), wk =   0.0039062
        k(  446) = (  -0.2500000  -0.1250000  -0.3750000), wk =   0.0039062
        k(  447) = (  -0.2500000  -0.1250000  -0.2500000), wk =   0.0039062
        k(  448) = (  -0.2500000  -0.1250000  -0.1250000), wk =   0.0039062
        k(  449) = (  -0.1250000   0.0000000   0.0000000), wk =   0.0039062
        k(  450) = (  -0.1250000   0.0000000   0.1250000), wk =   0.0039062
        k(  451) = (  -0.1250000   0.0000000   0.2500000), wk =   0.0039062
        k(  452) = (  -0.1250000   0.0000000   0.3750000), wk =   0.0039062
        k(  453) = (  -0.1250000   0.0000000  -0.5000000), wk =   0.0039062
        k(  454) = (  -0.1250000   0.0000000  -0.3750000), wk =   0.0039062
        k(  455) = (  -0.1250000   0.0000000  -0.2500000), wk =   0.0039062
        k(  456) = (  -0.1250000   0.0000000  -0.1250000), wk =   0.0039062
        k(  457) = (  -0.1250000   0.1250000   0.0000000), wk =   0.0039062
        k(  458) = (  -0.1250000   0.1250000   0.1250000), wk =   0.0039062
        k(  459) = (  -0.1250000   0.1250000   0.2500000), wk =   0.0039062
        k(  460) = (  -0.1250000   0.1250000   0.3750000), wk =   0.0039062
        k(  461) = (  -0.1250000   0.1250000  -0.5000000), wk =   0.0039062
        k(  462) = (  -0.1250000   0.1250000  -0.3750000), wk =   0.0039062
        k(  463) = (  -0.1250000   0.1250000  -0.2500000), wk =   0.0039062
        k(  464) = (  -0.1250000   0.1250000  -0.1250000), wk =   0.0039062
        k(  465) = (  -0.1250000   0.2500000   0.0000000), wk =   0.0039062
        k(  466) = (  -0.1250000   0.2500000   0.1250000), wk =   0.0039062
        k(  467) = (  -0.1250000   0.2500000   0.2500000), wk =   0.0039062
        k(  468) = (  -0.1250000   0.2500000   0.3750000), wk =   0.0039062
        k(  469) = (  -0.1250000   0.2500000  -0.5000000), wk =   0.0039062
        k(  470) = (  -0.1250000   0.2500000  -0.3750000), wk =   0.0039062
        k(  471) = (  -0.1250000   0.2500000  -0.2500000), wk =   0.0039062
        k(  472) = (  -0.1250000   0.2500000  -0.1250000), wk =   0.0039062
        k(  473) = (  -0.1250000   0.3750000   0.0000000), wk =   0.0039062
        k(  474) = (  -0.1250000   0.3750000   0.1250000), wk =   0.0039062
        k(  475) = (  -0.1250000   0.3750000   0.2500000), wk =   0.0039062
        k(  476) = (  -0.1250000   0.3750000   0.3750000), wk =   0.0039062
        k(  477) = (  -0.1250000   0.3750000  -0.5000000), wk =   0.0039062
        k(  478) = (  -0.1250000   0.3750000  -0.3750000), wk =   0.0039062
        k(  479) = (  -0.1250000   0.3750000  -0.2500000), wk =   0.0039062
        k(  480) = (  -0.1250000   0.3750000  -0.1250000), wk =   0.0039062
        k(  481) = (  -0.1250000  -0.5000000   0.0000000), wk =   0.0039062
        k(  482) = (  -0.1250000  -0.5000000   0.1250000), wk =   0.0039062
        k(  483) = (  -0.1250000  -0.5000000   0.2500000), wk =   0.0039062
[...]
     1.0000   1.0000   0.0000   0.0000

          k =-0.2500-0.2887 0.0000 (   458 PWs)   bands (ev):

    -0.1142   7.6349   9.3670  13.6961

     occupation numbers 
     1.0000   1.0000   0.0000   0.0000

          k =-0.2500-0.2887 0.0791 (   455 PWs)   bands (ev):

     0.0218   6.3856  10.6775  13.9489

     occupation numbers 
     1.0000   1.0000   0.0000   0.0000

          k =-0.2500-0.2887 0.1583 (   455 PWs)   bands (ev):

     0.4292   4.7333  12.3050  14.8271

     occupation numbers 
     1.0000   1.0000   0.0000   0.0000

          k =-0.2500-0.2887 0.2374 (   456 PWs)   bands (ev):

     1.1076   3.2699  13.4487  15.2415

     occupation numbers 
     1.0000   1.0000   0.0000   0.0000

          k =-0.2500-0.2887-0.3165 (   452 PWs)   bands (ev):

     2.0540   2.0586  14.3845  14.3894

     occupation numbers 
     1.0000   1.0000   0.0000   0.0000

          k =-0.2500-0.2887-0.2374 (   456 PWs)   bands (ev):

     1.1076   3.2700  13.4469  15.2440

     occupation numbers 
     1.0000   1.0000   0.0000   0.0000

          k =-0.2500-0.2887-0.1583 (   455 PWs)   bands (ev):

     0.4292   4.7332  12.3028  14.8351

     occupation numbers 
     1.0000   1.0000   0.0000   0.0000

          k =-0.2500-0.2887-0.0791 (   455 PWs)   bands (ev):

     0.0218   6.3859  10.6767  13.9508

     occupation numbers 
     1.0000   1.0000   0.0000   0.0000

          k =-0.1250-0.0722 0.0000 (   447 PWs)   bands (ev):

    -2.8241   4.1730   9.2955  21.0185

     occupation numbers 
     1.0000   1.0000   0.0000   0.0000

          k =-0.1250-0.0722 0.0791 (   455 PWs)   bands (ev):

    -2.6889   3.3911  10.3830  21.1256

     occupation numbers 
     1.0000   1.0000   0.0000   0.0000

          k =-0.1250-0.0722 0.1583 (   461 PWs)   bands (ev):

    -2.2830   1.9448  12.7364  21.3927

     occupation numbers 
     1.0000   1.0000   0.0000   0.0000

          k =-0.1250-0.0722 0.2374 (   465 PWs)   bands (ev):

    -1.6071   0.5358  15.6034  21.1325

     occupation numbers 
     1.0000   1.0000   0.0000   0.0000

          k =-0.1250-0.0722-0.3165 (   468 PWs)   bands (ev):

    -0.6653  -0.6611  18.6652  18.6715

     occupation numbers 
     1.0000   1.0000   0.0000   0.0000

          k =-0.1250-0.0722-0.2374 (   465 PWs)   bands (ev):

    -1.6071   0.5358  15.6028  21.1374

     occupation numbers 
     1.0000   1.0000   0.0000   0.0000

          k =-0.1250-0.0722-0.1583 (   461 PWs)   bands (ev):

    -2.2830   1.9448  12.7357  21.3978

     occupation numbers 
     1.0000   1.0000   0.0000   0.0000

          k =-0.1250-0.0722-0.0791 (   455 PWs)   bands (ev):

    -2.6889   3.3911  10.3830  21.1236

     occupation numbers 
     1.0000   1.0000   0.0000   0.0000

          k =-0.1250 0.0722 0.0000 (   447 PWs)   bands (ev):

    -2.8252   4.1790   9.2622  21.0551

     occupation numbers 
     1.0000   1.0000   0.0000   0.0000

          k =-0.1250 0.0722 0.0791 (   455 PWs)   bands (ev):

    -2.6905   3.3911  10.3607  21.1892

     occupation numbers 
     1.0000   1.0000   0.0000   0.0000

          k =-0.1250 0.0722 0.1583 (   461 PWs)   bands (ev):

    -2.2856   1.9401  12.7327  21.5833

     occupation numbers 
     1.0000   1.0000   0.0000   0.0000

          k =-0.1250 0.0722 0.2374 (   465 PWs)   bands (ev):

    -1.6108   0.5299  15.6385  21.7530

     occupation numbers 
     1.0000   1.0000   0.0000   0.0000

          k =-0.1250 0.0722-0.3165 (   468 PWs)   bands (ev):

    -0.6701  -0.6659  18.8153  18.8209

     occupation numbers 
     1.0000   1.0000   0.0000   0.0000

          k =-0.1250 0.0722-0.2374 (   465 PWs)   bands (ev):

    -1.6107   0.5299  15.6385  21.7697

     occupation numbers 
     1.0000   1.0000   0.0000   0.0000

          k =-0.1250 0.0722-0.1583 (   461 PWs)   bands (ev):

    -2.2856   1.9401  12.7330  21.5811

     occupation numbers 
     1.0000   1.0000   0.0000   0.0000

          k =-0.1250 0.0722-0.0791 (   455 PWs)   bands (ev):

    -2.6904   3.3912  10.3609  21.1843

     occupation numbers 
     1.0000   1.0000   0.0000   0.0000

          k =-0.1250 0.2165 0.0000 (   453 PWs)   bands (ev):

    -1.9243   5.3616   9.4224  17.9483

     occupation numbers 
     1.0000   1.0000   0.0000   0.0000

          k =-0.1250 0.2165 0.0791 (   458 PWs)   bands (ev):

    -1.7894   4.4464  10.6325  18.0916

     occupation numbers 
     1.0000   1.0000   0.0000   0.0000

          k =-0.1250 0.2165 0.1583 (   457 PWs)   bands (ev):

    -1.3844   2.8996  13.0456  18.4999

     occupation numbers 
     1.0000   1.0000   0.0000   0.0000

          k =-0.1250 0.2165 0.2374 (   458 PWs)   bands (ev):

    -0.7077   1.4526  15.8625  19.0830

     occupation numbers 
     1.0000   1.0000   0.0000   0.0000

          k =-0.1250 0.2165-0.3165 (   458 PWs)   bands (ev):

     0.2375   0.2419  18.6179  18.6208

     occupation numbers 
     1.0000   1.0000   0.0000   0.0000

          k =-0.1250 0.2165-0.2374 (   458 PWs)   bands (ev):

    -0.7078   1.4528  15.8599  19.0741

     occupation numbers 
     1.0000   1.0000   0.0000   0.0000

          k =-0.1250 0.2165-0.1583 (   457 PWs)   bands (ev):

    -1.3843   2.8995  13.0455  18.5135

     occupation numbers 
     1.0000   1.0000   0.0000   0.0000

          k =-0.1250 0.2165-0.0791 (   458 PWs)   bands (ev):

    -1.7894   4.4464  10.6325  18.0911

     occupation numbers 
     1.0000   1.0000   0.0000   0.0000

          k =-0.1250 0.3608 0.0000 (   458 PWs)   bands (ev):

    -0.1190   7.6907   9.1603  13.7730

     occupation numbers 
     1.0000   1.0000   0.0000   0.0000

          k =-0.1250 0.3608 0.0791 (   455 PWs)   bands (ev):

     0.0145   6.3517  10.5831  14.0525

     occupation numbers 
     1.0000   1.0000   0.0000   0.0000

          k =-0.1250 0.3608 0.1583 (   455 PWs)   bands (ev):

     0.4130   4.6791  12.2989  15.0413

     occupation numbers 
     1.0000   1.0000   0.0000   0.0000

          k =-0.1250 0.3608 0.2374 (   456 PWs)   bands (ev):

     1.0799   3.2187  13.5644  15.6790

     occupation numbers 
     1.0000   1.0000   0.0000   0.0000

          k =-0.1250 0.3608-0.3165 (   452 PWs)   bands (ev):

     2.0134   2.0179  14.6365  14.6434

     occupation numbers 
     1.0000   1.0000   0.0000   0.0000

          k =-0.1250 0.3608-0.2374 (   456 PWs)   bands (ev):

     1.0799   3.2188  13.5632  15.6765

     occupation numbers 
     1.0000   1.0000   0.0000   0.0000

          k =-0.1250 0.3608-0.1583 (   455 PWs)   bands (ev):

     0.4134   4.6795  12.2975  15.0071

     occupation numbers 
     1.0000   1.0000   0.0000   0.0000

          k =-0.1250 0.3608-0.0791 (   455 PWs)   bands (ev):

     0.0139   6.3514  10.5827  14.0546

     occupation numbers 
     1.0000   1.0000   0.0000   0.0000

          k =-0.1250-0.6495 0.0000 (   454 PWs)   bands (ev):

     2.4925   6.4353  10.9581  13.1504

     occupation numbers 
     1.0000   1.0000   0.0000   0.0000

          k =-0.1250-0.6495 0.0791 (   455 PWs)   bands (ev):

     2.6139   6.3145  10.4111  13.8917

     occupation numbers 
     1.0000   1.0000   0.0000   0.0000

          k =-0.1250-0.6495 0.1583 (   456 PWs)   bands (ev):

     2.9719   5.8808   9.8707  12.6963

     occupation numbers 
     1.0000   1.0000   0.0000   0.0000

          k =-0.1250-0.6495 0.2374 (   456 PWs)   bands (ev):

     3.5472   5.1387   9.9214  11.4416

     occupation numbers 
     1.0000   1.0000   0.0000   0.0000

          k =-0.1250-0.6495-0.3165 (   460 PWs)   bands (ev):

     4.2981   4.3017  10.4883  10.4915

     occupation numbers 
     1.0000   1.0000   0.0000   0.0000

          k =-0.1250-0.6495-0.2374 (   456 PWs)   bands (ev):

     3.5473   5.1388   9.9210  11.4417

     occupation numbers 
     1.0000   1.0000   0.0000   0.0000

          k =-0.1250-0.6495-0.1583 (   456 PWs)   bands (ev):

     2.9719   5.8810   9.8704  12.6963

     occupation numbers 
     1.0000   1.0000   0.0000   0.0000

          k =-0.1250-0.6495-0.0791 (   455 PWs)   bands (ev):

     2.6140   6.3145  10.4100  13.8886

     occupation numbers 
     1.0000   1.0000   0.0000   0.0000

          k =-0.1250-0.5052 0.0000 (   454 PWs)   bands (ev):

     2.5015   6.4256  10.8983  13.4752

     occupation numbers 
     1.0000   1.0000   0.0000   0.0000

          k =-0.1250-0.5052 0.0791 (   455 PWs)   bands (ev):

     2.6249   6.3032  10.4424  13.9590

     occupation numbers 
     1.0000   1.0000   0.0000   0.0000

          k =-0.1250-0.5052 0.1583 (   456 PWs)   bands (ev):

     2.9890   5.8773   9.9378  12.5240

     occupation numbers 
     1.0000   1.0000   0.0000   0.0000

          k =-0.1250-0.5052 0.2374 (   456 PWs)   bands (ev):

     3.5713   5.1549   9.9442  11.3255

     occupation numbers 
     1.0000   1.0000   0.0000   0.0000

          k =-0.1250-0.5052-0.3165 (   460 PWs)   bands (ev):

     4.3241   4.3277  10.4426  10.4458

     occupation numbers 
     1.0000   1.0000   0.0000   0.0000

          k =-0.1250-0.5052-0.2374 (   456 PWs)   bands (ev):

     3.5713   5.1548   9.9451  11.3256

     occupation numbers 
     1.0000   1.0000   0.0000   0.0000

          k =-0.1250-0.5052-0.1583 (   456 PWs)   bands (ev):

     2.9890   5.8772   9.9394  12.5223

     occupation numbers 
     1.0000   1.0000   0.0000   0.0000

          k =-0.1250-0.5052-0.0791 (   455 PWs)   bands (ev):

     2.6250   6.3031  10.4457  14.0182

     occupation numbers 
     1.0000   1.0000   0.0000   0.0000

          k =-0.1250-0.3608 0.0000 (   458 PWs)   bands (ev):

    -0.1127   7.6527   9.2253  13.9509

     occupation numbers 
     1.0000   1.0000   0.0000   0.0000

          k =-0.1250-0.3608 0.0791 (   455 PWs)   bands (ev):

     0.0226   6.3629  10.5899  14.2009

     occupation numbers 
     1.0000   1.0000   0.0000   0.0000

          k =-0.1250-0.3608 0.1583 (   455 PWs)   bands (ev):

     0.4265   4.7069  12.2891  15.0266

     occupation numbers 
     1.0000   1.0000   0.0000   0.0000

          k =-0.1250-0.3608 0.2374 (   456 PWs)   bands (ev):

     1.1000   3.2492  13.5362  15.4379

     occupation numbers 
     1.0000   1.0000   0.0000   0.0000

          k =-0.1250-0.3608-0.3165 (   452 PWs)   bands (ev):

     2.0398   2.0443  14.5438  14.5502

     occupation numbers 
     1.0000   1.0000   0.0000   0.0000

          k =-0.1250-0.3608-0.2374 (   456 PWs)   bands (ev):

     1.0999   3.2493  13.5377  15.4380

     occupation numbers 
     1.0000   1.0000   0.0000   0.0000

          k =-0.1250-0.3608-0.1583 (   455 PWs)   bands (ev):

     0.4264   4.7069  12.2911  15.0257

     occupation numbers 
     1.0000   1.0000   0.0000   0.0000

          k =-0.1250-0.3608-0.0791 (   455 PWs)   bands (ev):

     0.0225   6.3628  10.5905  14.1954

     occupation numbers 
     1.0000   1.0000   0.0000   0.0000

          k =-0.1250-0.2165 0.0000 (   453 PWs)   bands (ev):

    -1.9201   5.3424   9.5148  17.7920

     occupation numbers 
     1.0000   1.0000   0.0000   0.0000

          k =-0.1250-0.2165 0.0791 (   458 PWs)   bands (ev):

    -1.7842   4.4481  10.6936  17.9109

     occupation numbers 
     1.0000   1.0000   0.0000   0.0000

          k =-0.1250-0.2165 0.1583 (   457 PWs)   bands (ev):

    -1.3769   2.9150  13.0597  18.2354

     occupation numbers 
     1.0000   1.0000   0.0000   0.0000

          k =-0.1250-0.2165 0.2374 (   458 PWs)   bands (ev):

    -0.6963   1.4704  15.7834  18.6517

     occupation numbers 
     1.0000   1.0000   0.0000   0.0000

          k =-0.1250-0.2165-0.3165 (   458 PWs)   bands (ev):

     0.2535   0.2578  18.2133  18.2178

     occupation numbers 
     1.0000   1.0000   0.0000   0.0000

          k =-0.1250-0.2165-0.2374 (   458 PWs)   bands (ev):

    -0.6958   1.4709  15.7832  18.6554

     occupation numbers 
     1.0000   1.0000   0.0000   0.0000

          k =-0.1250-0.2165-0.1583 (   457 PWs)   bands (ev):

    -1.3769   2.9150  13.0595  18.2350

     occupation numbers 
     1.0000   1.0000   0.0000   0.0000

          k =-0.1250-0.2165-0.0791 (   458 PWs)   bands (ev):

    -1.7843   4.4482  10.6935  17.9112

     occupation numbers 
     1.0000   1.0000   0.0000   0.0000

     the Fermi energy is     8.7430 ev

!    total energy              =      -5.36812459 Ry
     estimated scf accuracy    <       0.00193519 Ry
     smearing contrib. (-TS)   =      -0.00004219 Ry
     internal energy E=F+TS    =      -5.36808240 Ry

     The total energy is F=E-TS. E is the sum of the following terms:
     one-electron contribution =       4.06032635 Ry
     hartree contribution      =       0.00453875 Ry
     xc contribution           =      -3.29457444 Ry
     ewald contribution        =      -6.13837306 Ry

     convergence has been achieved in   1 iterations

     Forces acting on atoms (cartesian axes, Ry/au):

     atom    1 type  1   force =    -0.01587068    0.00368364    0.00008257
     atom    2 type  1   force =     0.01587068   -0.00368364   -0.00008257
     The non-local contrib.  to forces
     atom    1 type  1   force =    -0.02230661    0.00418033   -0.00029506
     atom    2 type  1   force =     0.02233697   -0.00415823    0.00030409
     The ionic contribution  to forces
     atom    1 type  1   force =    -0.01116614    0.00277571   -0.00084427
     atom    2 type  1   force =     0.01116614   -0.00277571    0.00084427
     The local contribution  to forces
     atom    1 type  1   force =     0.01675214   -0.00306919    0.00119020
     atom    2 type  1   force =    -0.01675629    0.00306326   -0.00119043
     The core correction contribution to forces
     atom    1 type  1   force =     0.00104605   -0.00022287    0.00019019
     atom    2 type  1   force =    -0.00104698    0.00022187   -0.00019046
     The Hubbard contrib.    to forces
     atom    1 type  1   force =     0.00000000    0.00000000    0.00000000
     atom    2 type  1   force =     0.00000000    0.00000000    0.00000000
     The SCF correction term to forces
     atom    1 type  1   force =    -0.00018345    0.00002728   -0.00015419
     atom    2 type  1   force =     0.00018350   -0.00002722    0.00015424

     Total force =     0.023041     Total SCF correction =     0.000341


     Computing stress (Cartesian axis) and pressure

          total   stress  (Ry/bohr**3)                   (kbar)     P=        6.14
   0.00000995  -0.00011735   0.00000051            1.46      -17.26        0.08
  -0.00011735  -0.00002083  -0.00000016          -17.26       -3.06       -0.02
   0.00000051  -0.00000016   0.00013604            0.08       -0.02       20.01

     kinetic stress (kbar)   2789.61    -15.93      0.08
                              -15.93   2791.15     -0.00
                                0.08     -0.00   2804.10

     local   stress (kbar)    299.98     61.63     -0.08
                               61.63    298.07     -0.01
                               -0.08     -0.01    144.32

     nonloc. stress (kbar)    880.39    -11.05      0.01
                              -11.05    880.48     -0.00
                                0.01     -0.00    912.46

     hartree stress (kbar)      0.98     -0.83     -0.00
                               -0.83      1.03      0.00
                               -0.00      0.00      4.26

     exc-cor stress (kbar)    118.56     -0.96      0.00
                               -0.96    118.65      0.00
                                0.00      0.00    120.82

     corecor stress (kbar)  -1221.50      2.83     -0.01
                                2.83  -1221.76      0.01
                               -0.01      0.01  -1227.97

     ewald   stress (kbar)  -2866.54    -52.95      0.07
                              -52.95  -2870.69     -0.02
                                0.07     -0.02  -2737.98

     hubbard stress (kbar)      0.00      0.00      0.00
                                0.00      0.00      0.00
                                0.00      0.00      0.00

     DFT-D   stress (kbar)      0.00      0.00      0.00
                                0.00      0.00      0.00
                                0.00      0.00      0.00

     XDM     stress (kbar)      0.00      0.00      0.00
                                0.00      0.00      0.00
                                0.00      0.00      0.00

     dft-nl  stress (kbar)      0.00      0.00      0.00
                                0.00      0.00      0.00
                                0.00      0.00      0.00

     TS-vdW  stress (kbar)      0.00      0.00      0.00
                                0.00      0.00      0.00
                                0.00      0.00      0.00



     Writing output data file temp/Be.save/

     init_run     :      3.91s CPU      3.95s WALL (       1 calls)
     electrons    :     21.01s CPU     21.28s WALL (       1 calls)
     forces       :      0.23s CPU      0.23s WALL (       1 calls)
     stress       :      0.83s CPU      0.84s WALL (       1 calls)

     Called by init_run:
     wfcinit      :      3.75s CPU      3.80s WALL (       1 calls)
     wfcinit:atom :      0.04s CPU      0.04s WALL (     512 calls)
     wfcinit:wfcr :      3.55s CPU      3.59s WALL (     512 calls)
     potinit      :      0.01s CPU      0.01s WALL (       1 calls)
     hinit0       :      0.12s CPU      0.12s WALL (       1 calls)

     Called by electrons:
     c_bands      :     19.17s CPU     19.42s WALL (       2 calls)
     sum_band     :      1.82s CPU      1.85s WALL (       2 calls)
     v_of_rho     :      0.01s CPU      0.01s WALL (       2 calls)
     v_h          :      0.00s CPU      0.00s WALL (       2 calls)
     v_xc         :      0.03s CPU      0.03s WALL (       4 calls)
     newd         :      0.01s CPU      0.01s WALL (       2 calls)
     mix_rho      :      0.00s CPU      0.00s WALL (       2 calls)

     Called by c_bands:
     init_us_2    :      0.30s CPU      0.31s WALL (    3584 calls)
     cegterg      :     18.94s CPU     19.18s WALL (    1024 calls)

     Called by sum_band:
     sum_band:wei :      0.00s CPU      0.00s WALL (       2 calls)
     sum_band:loo :      1.81s CPU      1.84s WALL (       2 calls)
     sum_band:buf :      0.00s CPU      0.00s WALL (    1024 calls)
     sum_band:ini :      0.08s CPU      0.08s WALL (    1024 calls)
     sum_band:cal :      0.06s CPU      0.06s WALL (    1024 calls)
     sum_band:bec :      0.00s CPU      0.00s WALL (    1024 calls)
     addusdens    :      0.00s CPU      0.00s WALL (       2 calls)
     addusd:skk   :      0.00s CPU      0.00s WALL (       2 calls)
     addusd:dgemm :      0.00s CPU      0.00s WALL (       2 calls)
     addusd:qvan2 :      0.00s CPU      0.00s WALL (       2 calls)

     Called by *egterg:
     cdiaghg      :      0.25s CPU      0.25s WALL (    6146 calls)
     cegterg:over :      0.25s CPU      0.25s WALL (    5634 calls)
     cegterg:upda :      0.11s CPU      0.11s WALL (    5634 calls)
     cegterg:last :      0.25s CPU      0.26s WALL (    4508 calls)
     h_psi        :     21.13s CPU     21.39s WALL (    7170 calls)
     s_psi        :      0.25s CPU      0.25s WALL (    7170 calls)
     g_psi        :      0.04s CPU      0.04s WALL (    5634 calls)

     Called by h_psi:
     h_psi:calbec :      0.40s CPU      0.40s WALL (    7170 calls)
     vloc_psi     :     20.43s CPU     20.69s WALL (    7170 calls)
     add_vuspsi   :      0.25s CPU      0.25s WALL (    7170 calls)

     General routines
     calbec       :      0.59s CPU      0.60s WALL (   10754 calls)
     fft          :      0.03s CPU      0.03s WALL (      48 calls)
     ffts         :      0.00s CPU      0.00s WALL (       2 calls)
     fftw         :     21.44s CPU     21.75s WALL (   51818 calls)

     Parallel routines

     PWSCF        :     26.21s CPU     26.54s WALL


   This run was terminated on:  16:21:49   7Sep2021            

=------------------------------------------------------------------------------=
   JOB DONE.
=------------------------------------------------------------------------------=
