(written by ASE)

2 atoms
1 atom types

0.0      2.2598258677677969  xlo xhi
0.0      1.9570656971336065  ylo yhi
0.0      3.5698785608749377  zlo zhi
    -1.1299129338838985                       0                       0  xy xz yz

Atoms # atomic

     1   1      1.7528829725554222     0.32100374486468003      2.6776726423349717
     2   1    -0.62297003867152378      1.6360626302166867     0.89220546657479227
