
     Program PWSCF v.6.4.1 starts on 12Apr2020 at  2:15:13 

     This program is part of the open-source Quantum ESPRESSO suite
     for quantum simulation of materials; please cite
         "P. Giannozzi et al., J. Phys.:Condens. Matter 21 395502 (2009);
         "P. Giannozzi et al., J. Phys.:Condens. Matter 29 465901 (2017);
          URL http://www.quantum-espresso.org", 
     in publications or presentations arising from this work. More details at
     http://www.quantum-espresso.org/quote

     Parallel version (MPI), running on  1152 processors

     MPI processes distributed on    32 nodes
     K-points division:     npool     =      32
     R & G space division:  proc/nbgrp/npool/nimage =      36
     Reading input from Al.scf.pw

     Current dimensions of program PWSCF are:
     Max number of different atomic species (ntypx) = 10
     Max number of k-points (npk) =  40000
     Max angular momentum in pseudopotentials (lmaxx) =  3

     Subspace diagonalization in iterative solution of the eigenvalue problem:
     a serial algorithm will be used

 
     Parallelization info
     --------------------
     sticks:   dense  smooth     PW     G-vecs:    dense   smooth      PW
     Min         828     828    214               107635   107635   14184
     Max         830     830    215               107638   107638   14189
     Sum       29829   29829   7721              3874895  3874895  510699
 


     bravais-lattice index     =            0
     lattice parameter (alat)  =      30.6098  a.u.
     unit-cell volume          =   28680.1085 (a.u.)^3
     number of atoms/cell      =          256
     number of atomic types    =            1
     number of electrons       =       768.00
     number of Kohn-Sham states=          576
     kinetic-energy cutoff     =     100.0000  Ry
     charge density cutoff     =     400.0000  Ry
     convergence threshold     =      2.6E-04
     mixing beta               =       0.2000
     number of iterations used =            8  plain     mixing
     Exchange-correlation      = PBESOL ( 1  4 10  8 0 0)

     celldm(1)=  30.609784  celldm(2)=   0.000000  celldm(3)=   0.000000
     celldm(4)=   0.000000  celldm(5)=   0.000000  celldm(6)=   0.000000

     crystal axes: (cart. coord. in units of alat)
               a(1) = (   1.000000   0.000000   0.000000 )  
               a(2) = (   0.000000   1.000000   0.000000 )  
               a(3) = (   0.000000   0.000000   1.000000 )  

     reciprocal axes: (cart. coord. in units 2 pi/alat)
               b(1) = (  1.000000  0.000000  0.000000 )  
               b(2) = (  0.000000  1.000000  0.000000 )  
               b(3) = (  0.000000  0.000000  1.000000 )  


     PseudoPot. # 1 for Al read from file:
     /ascldap/users/namodin/MLDFT/pp/Al.sr-pbesol.upf
     MD5 check sum: 4b95ef907ba2fc50e54ad0216b4f2438
     Pseudo is Norm-conserving + core correction, Zval =  3.0
     Generated using ONCVPSP code by D. R. Hamann
     Using radial grid of 1876 points,  6 beta functions with: 
                l(1) =   0
                l(2) =   0
                l(3) =   1
                l(4) =   1
                l(5) =   2
                l(6) =   2

     atomic species   valence    mass     pseudopotential
        Al             3.00    26.98154     Al( 1.00)

     No symmetry found


                                    s                        frac. trans.

      isym =  1     identity                                     

 cryst.   s( 1) = (     1          0          0      )
                  (     0          1          0      )
                  (     0          0          1      )

 cart.    s( 1) = (  1.0000000  0.0000000  0.0000000 )
                  (  0.0000000  1.0000000  0.0000000 )
                  (  0.0000000  0.0000000  1.0000000 )


   Cartesian axes

     site n.     atom                  positions (alat units)
         1           Al  tau(   1) = (   0.0031772   0.0011502   0.0042298  )
         2           Al  tau(   2) = (   0.0002060   0.1232543   0.1227658  )
         3           Al  tau(   3) = (   0.1320591   0.0006985   0.1288047  )
         4           Al  tau(   4) = (   0.1203506   0.1223330   0.0050089  )
         5           Al  tau(   5) = (   0.9961608   0.9996578   0.2546816  )
         6           Al  tau(   6) = (   0.0046283   0.1169623   0.3775391  )
         7           Al  tau(   7) = (   0.1312673   0.0010596   0.3758456  )
         8           Al  tau(   8) = (   0.1183163   0.1317622   0.2521257  )
         9           Al  tau(   9) = (   0.0077925   0.9984284   0.5006894  )
        10           Al  tau(  10) = (   0.9940657   0.1205028   0.6279563  )
        11           Al  tau(  11) = (   0.1203950   0.9951881   0.6258383  )
        12           Al  tau(  12) = (   0.1204936   0.1238114   0.5017780  )
        13           Al  tau(  13) = (   0.9933549   0.0124564   0.7543701  )
        14           Al  tau(  14) = (   0.9955320   0.1300243   0.8749515  )
        15           Al  tau(  15) = (   0.1194326   0.0128848   0.8539566  )
        16           Al  tau(  16) = (   0.1313891   0.1320843   0.7422001  )
        17           Al  tau(  17) = (   0.0038214   0.2470936   0.0005302  )
        18           Al  tau(  18) = (   0.9920447   0.3707352   0.1262682  )
        19           Al  tau(  19) = (   0.1187438   0.2506054   0.1340411  )
        20           Al  tau(  20) = (   0.1167982   0.3720281   0.0009854  )
        21           Al  tau(  21) = (   0.9922367   0.2487983   0.2489409  )
        22           Al  tau(  22) = (   0.9903337   0.3736729   0.3774026  )
        23           Al  tau(  23) = (   0.1225887   0.2483965   0.3847520  )
        24           Al  tau(  24) = (   0.1207324   0.3754583   0.2539132  )
        25           Al  tau(  25) = (   0.9941442   0.2596295   0.5047724  )
        26           Al  tau(  26) = (   0.9954563   0.3907708   0.6231829  )
        27           Al  tau(  27) = (   0.1122968   0.2477282   0.6175919  )
        28           Al  tau(  28) = (   0.1281776   0.3766144   0.4980346  )
        29           Al  tau(  29) = (   0.0032151   0.2578383   0.7523787  )
        30           Al  tau(  30) = (   0.9997889   0.3732039   0.8675026  )
        31           Al  tau(  31) = (   0.1281422   0.2583742   0.8718804  )
        32           Al  tau(  32) = (   0.1312025   0.3819065   0.7501245  )
        33           Al  tau(  33) = (   0.9948476   0.4981233   0.0060997  )
        34           Al  tau(  34) = (   0.0087409   0.6191817   0.1264540  )
        35           Al  tau(  35) = (   0.1278020   0.4961700   0.1198808  )
        36           Al  tau(  36) = (   0.1222689   0.6184000   0.9965820  )
        37           Al  tau(  37) = (   0.0079326   0.4996590   0.2460053  )
        38           Al  tau(  38) = (   0.0032505   0.6174252   0.3583084  )
        39           Al  tau(  39) = (   0.1300162   0.5049762   0.3727683  )
        40           Al  tau(  40) = (   0.1288805   0.6161987   0.2452556  )
        41           Al  tau(  41) = (   0.0072575   0.4971867   0.4900521  )
        42           Al  tau(  42) = (   0.0080982   0.6229664   0.6295407  )
        43           Al  tau(  43) = (   0.1309634   0.5006396   0.6228288  )
        44           Al  tau(  44) = (   0.1219558   0.6202140   0.4952753  )
        45           Al  tau(  45) = (   0.9954798   0.5008006   0.7380457  )
        46           Al  tau(  46) = (   0.0097210   0.6275521   0.8719520  )
        47           Al  tau(  47) = (   0.1130238   0.4983576   0.8659151  )
        48           Al  tau(  48) = (   0.1326471   0.6272920   0.7539957  )
        49           Al  tau(  49) = (   0.0132627   0.7452144   0.9895750  )
        50           Al  tau(  50) = (   0.0030836   0.8859592   0.1301479  )
        51           Al  tau(  51) = (   0.1300872   0.7411988   0.1295588  )
        52           Al  tau(  52) = (   0.1168914   0.8773006   0.0007408  )
        53           Al  tau(  53) = (   0.0059878   0.7465328   0.2441649  )
        54           Al  tau(  54) = (   0.9999376   0.8705596   0.3750286  )
        55           Al  tau(  55) = (   0.1267912   0.7444282   0.3733818  )
        56           Al  tau(  56) = (   0.1317314   0.8722343   0.2554516  )
        57           Al  tau(  57) = (   0.0007548   0.7459136   0.5034342  )
        58           Al  tau(  58) = (   0.9882994   0.8737657   0.6293719  )
        59           Al  tau(  59) = (   0.1246286   0.7483679   0.6211664  )
        60           Al  tau(  60) = (   0.1211103   0.8719909   0.5012997  )
        61           Al  tau(  61) = (   0.9936734   0.7495780   0.7528452  )
        62           Al  tau(  62) = (   0.0006958   0.8815723   0.8711974  )
        63           Al  tau(  63) = (   0.1294504   0.7631337   0.8676346  )
        64           Al  tau(  64) = (   0.1147535   0.8779523   0.7503889  )
        65           Al  tau(  65) = (   0.2362625   0.0031944   0.9916668  )
        66           Al  tau(  66) = (   0.2575708   0.1270000   0.1278324  )
        67           Al  tau(  67) = (   0.3709974   0.9937457   0.1217344  )
        68           Al  tau(  68) = (   0.3702984   0.1161389   0.9940460  )
        69           Al  tau(  69) = (   0.2530292   0.9971174   0.2422568  )
        70           Al  tau(  70) = (   0.2519627   0.1226673   0.3710972  )
        71           Al  tau(  71) = (   0.3738148   0.9932425   0.3794838  )
        72           Al  tau(  72) = (   0.3806462   0.1292479   0.2451312  )
        73           Al  tau(  73) = (   0.2525453   0.9890372   0.4947523  )
        74           Al  tau(  74) = (   0.2539404   0.1278316   0.6166627  )
        75           Al  tau(  75) = (   0.3737286   0.9973102   0.6286315  )
        76           Al  tau(  76) = (   0.3775676   0.1212071   0.4975617  )
        77           Al  tau(  77) = (   0.2371091   0.0049692   0.7478768  )
        78           Al  tau(  78) = (   0.2470836   0.1329964   0.8687049  )
        79           Al  tau(  79) = (   0.3690361   0.9977215   0.8738606  )
        80           Al  tau(  80) = (   0.3761313   0.1294025   0.7559569  )
        81           Al  tau(  81) = (   0.2507416   0.2496800   0.0023796  )
        82           Al  tau(  82) = (   0.2417604   0.3739769   0.1181945  )
        83           Al  tau(  83) = (   0.3709926   0.2527789   0.1212626  )
        84           Al  tau(  84) = (   0.3649111   0.3816729   0.0031911  )
        85           Al  tau(  85) = (   0.2494339   0.2413798   0.2496329  )
        86           Al  tau(  86) = (   0.2516870   0.3715230   0.3758605  )
        87           Al  tau(  87) = (   0.3767998   0.2476797   0.3700296  )
        88           Al  tau(  88) = (   0.3656675   0.3668712   0.2471968  )
        89           Al  tau(  89) = (   0.2566807   0.2493599   0.4968905  )
        90           Al  tau(  90) = (   0.2368861   0.3732579   0.6136271  )
        91           Al  tau(  91) = (   0.3677528   0.2529583   0.6333919  )
        92           Al  tau(  92) = (   0.3705849   0.3723256   0.5064182  )
        93           Al  tau(  93) = (   0.2405848   0.2588798   0.7445023  )
        94           Al  tau(  94) = (   0.2476866   0.3827325   0.8806676  )
        95           Al  tau(  95) = (   0.3705254   0.2671255   0.8733535  )
        96           Al  tau(  96) = (   0.3703891   0.3757967   0.7527651  )
        97           Al  tau(  97) = (   0.2425345   0.4994223   0.9948792  )
        98           Al  tau(  98) = (   0.2507417   0.6244202   0.1224358  )
        99           Al  tau(  99) = (   0.3731138   0.4991490   0.1242095  )
       100           Al  tau( 100) = (   0.3732092   0.6235043   0.9937627  )
       101           Al  tau( 101) = (   0.2538945   0.4953834   0.2527104  )
       102           Al  tau( 102) = (   0.2565860   0.6231720   0.3734974  )
       103           Al  tau( 103) = (   0.3821223   0.4903409   0.3794771  )
       104           Al  tau( 104) = (   0.3809007   0.6089628   0.2554561  )
       105           Al  tau( 105) = (   0.2432941   0.5014269   0.4912612  )
       106           Al  tau( 106) = (   0.2526951   0.6295568   0.6284178  )
       107           Al  tau( 107) = (   0.3704263   0.5010505   0.6269735  )
       108           Al  tau( 108) = (   0.3708428   0.6252013   0.5126791  )
       109           Al  tau( 109) = (   0.2523158   0.5042231   0.7490857  )
       110           Al  tau( 110) = (   0.2508312   0.6288303   0.8723349  )
       111           Al  tau( 111) = (   0.3805419   0.4969712   0.8720083  )
       112           Al  tau( 112) = (   0.3885788   0.6185099   0.7478556  )
       113           Al  tau( 113) = (   0.2577902   0.7484784   0.9993937  )
       114           Al  tau( 114) = (   0.2491101   0.8742006   0.1227001  )
       115           Al  tau( 115) = (   0.3737906   0.7397331   0.1234442  )
       116           Al  tau( 116) = (   0.3780503   0.8681002   0.9929893  )
       117           Al  tau( 117) = (   0.2533360   0.7428769   0.2494520  )
       118           Al  tau( 118) = (   0.2538329   0.8720892   0.3732597  )
       119           Al  tau( 119) = (   0.3737689   0.7495986   0.3787734  )
       120           Al  tau( 120) = (   0.3748639   0.8689007   0.2567247  )
       121           Al  tau( 121) = (   0.2391569   0.7410304   0.4972468  )
       122           Al  tau( 122) = (   0.2436982   0.8764326   0.6245163  )
       123           Al  tau( 123) = (   0.3850523   0.7523950   0.6261712  )
       124           Al  tau( 124) = (   0.3784787   0.8761216   0.5101911  )
       125           Al  tau( 125) = (   0.2658234   0.7496481   0.7467171  )
       126           Al  tau( 126) = (   0.2407051   0.8756848   0.8713874  )
       127           Al  tau( 127) = (   0.3812744   0.7447834   0.8773487  )
       128           Al  tau( 128) = (   0.3712273   0.8816604   0.7546435  )
       129           Al  tau( 129) = (   0.4967626   0.9991357   0.0077349  )
       130           Al  tau( 130) = (   0.4967759   0.1288922   0.1188384  )
       131           Al  tau( 131) = (   0.6263207   0.0020994   0.1223908  )
       132           Al  tau( 132) = (   0.6142938   0.1250082   0.0033190  )
       133           Al  tau( 133) = (   0.5049933   0.9953639   0.2558851  )
       134           Al  tau( 134) = (   0.5175847   0.1224699   0.3716870  )
       135           Al  tau( 135) = (   0.6268544   0.9965707   0.3822132  )
       136           Al  tau( 136) = (   0.6213304   0.1067754   0.2423655  )
       137           Al  tau( 137) = (   0.5028305   0.0002766   0.5051740  )
       138           Al  tau( 138) = (   0.4992439   0.1287170   0.6307563  )
       139           Al  tau( 139) = (   0.6197376   0.9977687   0.6348708  )
       140           Al  tau( 140) = (   0.6215462   0.1337290   0.4934950  )
       141           Al  tau( 141) = (   0.4885874   0.0099657   0.7557787  )
       142           Al  tau( 142) = (   0.5003076   0.1299896   0.8859866  )
       143           Al  tau( 143) = (   0.6167524   0.0107831   0.8726888  )
       144           Al  tau( 144) = (   0.6206208   0.1381781   0.7515924  )
       145           Al  tau( 145) = (   0.4955156   0.2573279   0.9989217  )
       146           Al  tau( 146) = (   0.4962179   0.3753929   0.1254605  )
       147           Al  tau( 147) = (   0.6314016   0.2647997   0.1214557  )
       148           Al  tau( 148) = (   0.6199749   0.3755212   0.9919277  )
       149           Al  tau( 149) = (   0.5086625   0.2405268   0.2482062  )
       150           Al  tau( 150) = (   0.5026875   0.3672397   0.3715627  )
       151           Al  tau( 151) = (   0.6256764   0.2471267   0.3837364  )
       152           Al  tau( 152) = (   0.6292897   0.3823944   0.2581387  )
       153           Al  tau( 153) = (   0.4899964   0.2562722   0.4993550  )
       154           Al  tau( 154) = (   0.4979672   0.3850298   0.6272458  )
       155           Al  tau( 155) = (   0.6243045   0.2516688   0.6274959  )
       156           Al  tau( 156) = (   0.6146798   0.3731784   0.5063791  )
       157           Al  tau( 157) = (   0.4949364   0.2513304   0.7515426  )
       158           Al  tau( 158) = (   0.4953469   0.3761811   0.8690999  )
       159           Al  tau( 159) = (   0.6124628   0.2512134   0.8648504  )
       160           Al  tau( 160) = (   0.6228270   0.3808234   0.7435285  )
       161           Al  tau( 161) = (   0.5034844   0.5014815   0.0089882  )
       162           Al  tau( 162) = (   0.4985932   0.6237463   0.1317246  )
       163           Al  tau( 163) = (   0.6307296   0.5010373   0.1301151  )
       164           Al  tau( 164) = (   0.6269828   0.6278526   0.0083312  )
       165           Al  tau( 165) = (   0.5011645   0.4893161   0.2488343  )
       166           Al  tau( 166) = (   0.5045848   0.6147567   0.3810007  )
       167           Al  tau( 167) = (   0.6295774   0.4940224   0.3818167  )
       168           Al  tau( 168) = (   0.6265507   0.6215585   0.2551956  )
       169           Al  tau( 169) = (   0.5011587   0.4954124   0.4981049  )
       170           Al  tau( 170) = (   0.5097368   0.6171338   0.6263017  )
       171           Al  tau( 171) = (   0.6311882   0.4963128   0.6240140  )
       172           Al  tau( 172) = (   0.6249857   0.6106746   0.4986682  )
       173           Al  tau( 173) = (   0.5090741   0.5015347   0.7590198  )
       174           Al  tau( 174) = (   0.5121234   0.6238632   0.8824450  )
       175           Al  tau( 175) = (   0.6223940   0.4970521   0.8834320  )
       176           Al  tau( 176) = (   0.6275742   0.6152763   0.7447301  )
       177           Al  tau( 177) = (   0.4993697   0.7514169   0.0009842  )
       178           Al  tau( 178) = (   0.5019826   0.8716460   0.1324790  )
       179           Al  tau( 179) = (   0.6175986   0.7507873   0.1420818  )
       180           Al  tau( 180) = (   0.6279097   0.8736348   0.0113490  )
       181           Al  tau( 181) = (   0.4964838   0.7479872   0.2557599  )
       182           Al  tau( 182) = (   0.4956389   0.8709803   0.3749008  )
       183           Al  tau( 183) = (   0.6197573   0.7499252   0.3817301  )
       184           Al  tau( 184) = (   0.6300158   0.8747657   0.2542320  )
       185           Al  tau( 185) = (   0.5006917   0.7486436   0.5071292  )
       186           Al  tau( 186) = (   0.5118328   0.8715232   0.6303688  )
       187           Al  tau( 187) = (   0.6312864   0.7392609   0.6185089  )
       188           Al  tau( 188) = (   0.6287644   0.8657930   0.4994634  )
       189           Al  tau( 189) = (   0.4976976   0.7465692   0.7523219  )
       190           Al  tau( 190) = (   0.5059956   0.8782228   0.8811116  )
       191           Al  tau( 191) = (   0.6282828   0.7485185   0.8781883  )
       192           Al  tau( 192) = (   0.6201364   0.8759917   0.7630324  )
       193           Al  tau( 193) = (   0.7568675   0.9949212   0.0008883  )
       194           Al  tau( 194) = (   0.7446784   0.1272343   0.1196129  )
       195           Al  tau( 195) = (   0.8755655   0.0036968   0.1262179  )
       196           Al  tau( 196) = (   0.8747581   0.1226694   0.9986802  )
       197           Al  tau( 197) = (   0.7460901   0.0016363   0.2475265  )
       198           Al  tau( 198) = (   0.7534999   0.1293343   0.3761181  )
       199           Al  tau( 199) = (   0.8809514   0.0013375   0.3771170  )
       200           Al  tau( 200) = (   0.8770677   0.1184974   0.2471414  )
       201           Al  tau( 201) = (   0.7436281   0.0070347   0.5052833  )
       202           Al  tau( 202) = (   0.7505756   0.1336799   0.6204347  )
       203           Al  tau( 203) = (   0.8701572   0.0037602   0.6241105  )
       204           Al  tau( 204) = (   0.8783247   0.1195733   0.5012230  )
       205           Al  tau( 205) = (   0.7544030   0.0026656   0.7543877  )
       206           Al  tau( 206) = (   0.7506339   0.1279792   0.8740803  )
       207           Al  tau( 207) = (   0.8750051   0.0096946   0.8726806  )
       208           Al  tau( 208) = (   0.8735534   0.1295556   0.7539954  )
       209           Al  tau( 209) = (   0.7454166   0.2449009   0.0040735  )
       210           Al  tau( 210) = (   0.7507568   0.3909947   0.1153327  )
       211           Al  tau( 211) = (   0.8643184   0.2566083   0.1125568  )
       212           Al  tau( 212) = (   0.8665242   0.3796960   0.9921968  )
       213           Al  tau( 213) = (   0.7414692   0.2398769   0.2483419  )
       214           Al  tau( 214) = (   0.7516972   0.3762563   0.3763435  )
       215           Al  tau( 215) = (   0.8889067   0.2508653   0.3772820  )
       216           Al  tau( 216) = (   0.8623857   0.3612172   0.2420017  )
       217           Al  tau( 217) = (   0.7514673   0.2540304   0.5071803  )
       218           Al  tau( 218) = (   0.7489439   0.3695095   0.6238374  )
       219           Al  tau( 219) = (   0.8744253   0.2550116   0.6250301  )
       220           Al  tau( 220) = (   0.8777657   0.3748173   0.5062805  )
       221           Al  tau( 221) = (   0.7461725   0.2490686   0.7559608  )
       222           Al  tau( 222) = (   0.7522180   0.3750791   0.8735510  )
       223           Al  tau( 223) = (   0.8789603   0.2576096   0.8839084  )
       224           Al  tau( 224) = (   0.8686761   0.3816470   0.7462690  )
       225           Al  tau( 225) = (   0.7418935   0.5102009   0.9983460  )
       226           Al  tau( 226) = (   0.7452406   0.6271639   0.1304493  )
       227           Al  tau( 227) = (   0.8717035   0.4989108   0.1200218  )
       228           Al  tau( 228) = (   0.8695141   0.6212940   0.0027683  )
       229           Al  tau( 229) = (   0.7520317   0.5009394   0.2405054  )
       230           Al  tau( 230) = (   0.7590062   0.6184458   0.3609042  )
       231           Al  tau( 231) = (   0.8781468   0.4959112   0.3635539  )
       232           Al  tau( 232) = (   0.8790389   0.6218436   0.2403433  )
       233           Al  tau( 233) = (   0.7516272   0.4962881   0.4927029  )
       234           Al  tau( 234) = (   0.7483445   0.6293456   0.6170741  )
       235           Al  tau( 235) = (   0.8637671   0.5061625   0.6214923  )
       236           Al  tau( 236) = (   0.8760183   0.6179432   0.4949900  )
       237           Al  tau( 237) = (   0.7583291   0.5029924   0.7530156  )
       238           Al  tau( 238) = (   0.7500300   0.6314169   0.8778257  )
       239           Al  tau( 239) = (   0.8777725   0.5058753   0.8723327  )
       240           Al  tau( 240) = (   0.8833696   0.6265327   0.7569937  )
       241           Al  tau( 241) = (   0.7458391   0.7541646   0.0034885  )
       242           Al  tau( 242) = (   0.7581303   0.8764052   0.1270612  )
       243           Al  tau( 243) = (   0.8792810   0.7500580   0.1247445  )
       244           Al  tau( 244) = (   0.8843872   0.8781921   0.0047254  )
       245           Al  tau( 245) = (   0.7599876   0.7523613   0.2507801  )
       246           Al  tau( 246) = (   0.7626017   0.8780494   0.3663655  )
       247           Al  tau( 247) = (   0.8809905   0.7493594   0.3722918  )
       248           Al  tau( 248) = (   0.8824798   0.8689766   0.2522183  )
       249           Al  tau( 249) = (   0.7524850   0.7564206   0.4970607  )
       250           Al  tau( 250) = (   0.7498428   0.8747316   0.6289877  )
       251           Al  tau( 251) = (   0.8761117   0.7448768   0.6271087  )
       252           Al  tau( 252) = (   0.8809313   0.8769645   0.4914100  )
       253           Al  tau( 253) = (   0.7483453   0.7593029   0.7556943  )
       254           Al  tau( 254) = (   0.7589822   0.8826962   0.8694501  )
       255           Al  tau( 255) = (   0.8702896   0.7523677   0.8780772  )
       256           Al  tau( 256) = (   0.8780160   0.8762545   0.7495114  )

   Crystallographic axes

     site n.     atom                  positions (cryst. coord.)
         1           Al  tau(   1) = (  0.0031772  0.0011502  0.0042298  )
         2           Al  tau(   2) = (  0.0002060  0.1232543  0.1227658  )
         3           Al  tau(   3) = (  0.1320591  0.0006985  0.1288047  )
         4           Al  tau(   4) = (  0.1203506  0.1223330  0.0050089  )
         5           Al  tau(   5) = (  0.9961608  0.9996578  0.2546816  )
         6           Al  tau(   6) = (  0.0046283  0.1169623  0.3775391  )
         7           Al  tau(   7) = (  0.1312673  0.0010596  0.3758456  )
         8           Al  tau(   8) = (  0.1183163  0.1317622  0.2521257  )
         9           Al  tau(   9) = (  0.0077925  0.9984284  0.5006894  )
        10           Al  tau(  10) = (  0.9940657  0.1205028  0.6279563  )
        11           Al  tau(  11) = (  0.1203950  0.9951881  0.6258383  )
        12           Al  tau(  12) = (  0.1204936  0.1238114  0.5017780  )
        13           Al  tau(  13) = (  0.9933549  0.0124564  0.7543701  )
        14           Al  tau(  14) = (  0.9955320  0.1300243  0.8749515  )
        15           Al  tau(  15) = (  0.1194326  0.0128848  0.8539566  )
        16           Al  tau(  16) = (  0.1313891  0.1320843  0.7422001  )
        17           Al  tau(  17) = (  0.0038214  0.2470936  0.0005302  )
        18           Al  tau(  18) = (  0.9920447  0.3707352  0.1262682  )
        19           Al  tau(  19) = (  0.1187438  0.2506054  0.1340411  )
        20           Al  tau(  20) = (  0.1167982  0.3720281  0.0009854  )
        21           Al  tau(  21) = (  0.9922367  0.2487983  0.2489409  )
        22           Al  tau(  22) = (  0.9903337  0.3736729  0.3774026  )
        23           Al  tau(  23) = (  0.1225887  0.2483965  0.3847520  )
        24           Al  tau(  24) = (  0.1207324  0.3754583  0.2539132  )
        25           Al  tau(  25) = (  0.9941442  0.2596295  0.5047724  )
        26           Al  tau(  26) = (  0.9954563  0.3907708  0.6231829  )
        27           Al  tau(  27) = (  0.1122968  0.2477282  0.6175919  )
        28           Al  tau(  28) = (  0.1281776  0.3766144  0.4980346  )
        29           Al  tau(  29) = (  0.0032151  0.2578383  0.7523787  )
        30           Al  tau(  30) = (  0.9997889  0.3732039  0.8675026  )
        31           Al  tau(  31) = (  0.1281422  0.2583742  0.8718804  )
        32           Al  tau(  32) = (  0.1312025  0.3819065  0.7501245  )
        33           Al  tau(  33) = (  0.9948476  0.4981233  0.0060997  )
        34           Al  tau(  34) = (  0.0087409  0.6191817  0.1264540  )
        35           Al  tau(  35) = (  0.1278020  0.4961700  0.1198808  )
        36           Al  tau(  36) = (  0.1222689  0.6184000  0.9965820  )
        37           Al  tau(  37) = (  0.0079326  0.4996590  0.2460053  )
        38           Al  tau(  38) = (  0.0032505  0.6174252  0.3583084  )
        39           Al  tau(  39) = (  0.1300162  0.5049762  0.3727683  )
        40           Al  tau(  40) = (  0.1288805  0.6161987  0.2452556  )
        41           Al  tau(  41) = (  0.0072575  0.4971867  0.4900521  )
        42           Al  tau(  42) = (  0.0080982  0.6229664  0.6295407  )
        43           Al  tau(  43) = (  0.1309634  0.5006396  0.6228288  )
        44           Al  tau(  44) = (  0.1219558  0.6202140  0.4952753  )
        45           Al  tau(  45) = (  0.9954798  0.5008006  0.7380457  )
        46           Al  tau(  46) = (  0.0097210  0.6275521  0.8719520  )
        47           Al  tau(  47) = (  0.1130238  0.4983576  0.8659151  )
        48           Al  tau(  48) = (  0.1326471  0.6272920  0.7539957  )
        49           Al  tau(  49) = (  0.0132627  0.7452144  0.9895750  )
        50           Al  tau(  50) = (  0.0030836  0.8859592  0.1301479  )
        51           Al  tau(  51) = (  0.1300872  0.7411988  0.1295588  )
        52           Al  tau(  52) = (  0.1168914  0.8773006  0.0007408  )
        53           Al  tau(  53) = (  0.0059878  0.7465328  0.2441649  )
        54           Al  tau(  54) = (  0.9999376  0.8705596  0.3750286  )
        55           Al  tau(  55) = (  0.1267912  0.7444282  0.3733818  )
        56           Al  tau(  56) = (  0.1317314  0.8722343  0.2554516  )
        57           Al  tau(  57) = (  0.0007548  0.7459136  0.5034342  )
        58           Al  tau(  58) = (  0.9882994  0.8737657  0.6293719  )
        59           Al  tau(  59) = (  0.1246286  0.7483679  0.6211664  )
        60           Al  tau(  60) = (  0.1211103  0.8719909  0.5012997  )
        61           Al  tau(  61) = (  0.9936734  0.7495780  0.7528452  )
        62           Al  tau(  62) = (  0.0006958  0.8815723  0.8711974  )
        63           Al  tau(  63) = (  0.1294504  0.7631337  0.8676346  )
        64           Al  tau(  64) = (  0.1147535  0.8779523  0.7503889  )
        65           Al  tau(  65) = (  0.2362625  0.0031944  0.9916668  )
        66           Al  tau(  66) = (  0.2575708  0.1270000  0.1278324  )
        67           Al  tau(  67) = (  0.3709974  0.9937457  0.1217344  )
        68           Al  tau(  68) = (  0.3702984  0.1161389  0.9940460  )
        69           Al  tau(  69) = (  0.2530292  0.9971174  0.2422568  )
        70           Al  tau(  70) = (  0.2519627  0.1226673  0.3710972  )
        71           Al  tau(  71) = (  0.3738148  0.9932425  0.3794838  )
        72           Al  tau(  72) = (  0.3806462  0.1292479  0.2451312  )
        73           Al  tau(  73) = (  0.2525453  0.9890372  0.4947523  )
        74           Al  tau(  74) = (  0.2539404  0.1278316  0.6166627  )
        75           Al  tau(  75) = (  0.3737286  0.9973102  0.6286315  )
        76           Al  tau(  76) = (  0.3775676  0.1212071  0.4975617  )
        77           Al  tau(  77) = (  0.2371091  0.0049692  0.7478768  )
        78           Al  tau(  78) = (  0.2470836  0.1329964  0.8687049  )
        79           Al  tau(  79) = (  0.3690361  0.9977215  0.8738606  )
        80           Al  tau(  80) = (  0.3761313  0.1294025  0.7559569  )
        81           Al  tau(  81) = (  0.2507416  0.2496800  0.0023796  )
        82           Al  tau(  82) = (  0.2417604  0.3739769  0.1181945  )
        83           Al  tau(  83) = (  0.3709926  0.2527789  0.1212626  )
        84           Al  tau(  84) = (  0.3649111  0.3816729  0.0031911  )
        85           Al  tau(  85) = (  0.2494339  0.2413798  0.2496329  )
        86           Al  tau(  86) = (  0.2516870  0.3715230  0.3758605  )
        87           Al  tau(  87) = (  0.3767998  0.2476797  0.3700296  )
        88           Al  tau(  88) = (  0.3656675  0.3668712  0.2471968  )
        89           Al  tau(  89) = (  0.2566807  0.2493599  0.4968905  )
        90           Al  tau(  90) = (  0.2368861  0.3732579  0.6136271  )
        91           Al  tau(  91) = (  0.3677528  0.2529583  0.6333919  )
        92           Al  tau(  92) = (  0.3705849  0.3723256  0.5064182  )
        93           Al  tau(  93) = (  0.2405848  0.2588798  0.7445023  )
        94           Al  tau(  94) = (  0.2476866  0.3827325  0.8806676  )
        95           Al  tau(  95) = (  0.3705254  0.2671255  0.8733535  )
        96           Al  tau(  96) = (  0.3703891  0.3757967  0.7527651  )
        97           Al  tau(  97) = (  0.2425345  0.4994223  0.9948792  )
        98           Al  tau(  98) = (  0.2507417  0.6244202  0.1224358  )
        99           Al  tau(  99) = (  0.3731138  0.4991490  0.1242095  )
       100           Al  tau( 100) = (  0.3732092  0.6235043  0.9937627  )
       101           Al  tau( 101) = (  0.2538945  0.4953834  0.2527104  )
       102           Al  tau( 102) = (  0.2565860  0.6231720  0.3734974  )
       103           Al  tau( 103) = (  0.3821223  0.4903409  0.3794771  )
       104           Al  tau( 104) = (  0.3809007  0.6089628  0.2554561  )
       105           Al  tau( 105) = (  0.2432941  0.5014269  0.4912612  )
       106           Al  tau( 106) = (  0.2526951  0.6295568  0.6284178  )
       107           Al  tau( 107) = (  0.3704263  0.5010505  0.6269735  )
       108           Al  tau( 108) = (  0.3708428  0.6252013  0.5126791  )
       109           Al  tau( 109) = (  0.2523158  0.5042231  0.7490857  )
       110           Al  tau( 110) = (  0.2508312  0.6288303  0.8723349  )
       111           Al  tau( 111) = (  0.3805419  0.4969712  0.8720083  )
       112           Al  tau( 112) = (  0.3885788  0.6185099  0.7478556  )
       113           Al  tau( 113) = (  0.2577902  0.7484784  0.9993937  )
       114           Al  tau( 114) = (  0.2491101  0.8742006  0.1227001  )
       115           Al  tau( 115) = (  0.3737906  0.7397331  0.1234442  )
       116           Al  tau( 116) = (  0.3780503  0.8681002  0.9929893  )
       117           Al  tau( 117) = (  0.2533360  0.7428769  0.2494520  )
       118           Al  tau( 118) = (  0.2538329  0.8720892  0.3732597  )
       119           Al  tau( 119) = (  0.3737689  0.7495986  0.3787734  )
       120           Al  tau( 120) = (  0.3748639  0.8689007  0.2567247  )
       121           Al  tau( 121) = (  0.2391569  0.7410304  0.4972468  )
       122           Al  tau( 122) = (  0.2436982  0.8764326  0.6245163  )
       123           Al  tau( 123) = (  0.3850523  0.7523950  0.6261712  )
       124           Al  tau( 124) = (  0.3784787  0.8761216  0.5101911  )
       125           Al  tau( 125) = (  0.2658234  0.7496481  0.7467171  )
       126           Al  tau( 126) = (  0.2407051  0.8756848  0.8713874  )
       127           Al  tau( 127) = (  0.3812744  0.7447834  0.8773487  )
       128           Al  tau( 128) = (  0.3712273  0.8816604  0.7546435  )
       129           Al  tau( 129) = (  0.4967626  0.9991357  0.0077349  )
       130           Al  tau( 130) = (  0.4967759  0.1288922  0.1188384  )
       131           Al  tau( 131) = (  0.6263207  0.0020994  0.1223908  )
       132           Al  tau( 132) = (  0.6142938  0.1250082  0.0033190  )
       133           Al  tau( 133) = (  0.5049933  0.9953639  0.2558851  )
       134           Al  tau( 134) = (  0.5175847  0.1224699  0.3716870  )
       135           Al  tau( 135) = (  0.6268544  0.9965707  0.3822132  )
       136           Al  tau( 136) = (  0.6213304  0.1067754  0.2423655  )
       137           Al  tau( 137) = (  0.5028305  0.0002766  0.5051740  )
       138           Al  tau( 138) = (  0.4992439  0.1287170  0.6307563  )
       139           Al  tau( 139) = (  0.6197376  0.9977687  0.6348708  )
       140           Al  tau( 140) = (  0.6215462  0.1337290  0.4934950  )
       141           Al  tau( 141) = (  0.4885874  0.0099657  0.7557787  )
       142           Al  tau( 142) = (  0.5003076  0.1299896  0.8859866  )
       143           Al  tau( 143) = (  0.6167524  0.0107831  0.8726888  )
       144           Al  tau( 144) = (  0.6206208  0.1381781  0.7515924  )
       145           Al  tau( 145) = (  0.4955156  0.2573279  0.9989217  )
       146           Al  tau( 146) = (  0.4962179  0.3753929  0.1254605  )
       147           Al  tau( 147) = (  0.6314016  0.2647997  0.1214557  )
       148           Al  tau( 148) = (  0.6199749  0.3755212  0.9919277  )
       149           Al  tau( 149) = (  0.5086625  0.2405268  0.2482062  )
       150           Al  tau( 150) = (  0.5026875  0.3672397  0.3715627  )
       151           Al  tau( 151) = (  0.6256764  0.2471267  0.3837364  )
       152           Al  tau( 152) = (  0.6292897  0.3823944  0.2581387  )
       153           Al  tau( 153) = (  0.4899964  0.2562722  0.4993550  )
       154           Al  tau( 154) = (  0.4979672  0.3850298  0.6272458  )
       155           Al  tau( 155) = (  0.6243045  0.2516688  0.6274959  )
       156           Al  tau( 156) = (  0.6146798  0.3731784  0.5063791  )
       157           Al  tau( 157) = (  0.4949364  0.2513304  0.7515426  )
       158           Al  tau( 158) = (  0.4953469  0.3761811  0.8690999  )
       159           Al  tau( 159) = (  0.6124628  0.2512134  0.8648504  )
       160           Al  tau( 160) = (  0.6228270  0.3808234  0.7435285  )
       161           Al  tau( 161) = (  0.5034844  0.5014815  0.0089882  )
       162           Al  tau( 162) = (  0.4985932  0.6237463  0.1317246  )
       163           Al  tau( 163) = (  0.6307296  0.5010373  0.1301151  )
       164           Al  tau( 164) = (  0.6269828  0.6278526  0.0083312  )
       165           Al  tau( 165) = (  0.5011645  0.4893161  0.2488343  )
       166           Al  tau( 166) = (  0.5045848  0.6147567  0.3810007  )
       167           Al  tau( 167) = (  0.6295774  0.4940224  0.3818167  )
       168           Al  tau( 168) = (  0.6265507  0.6215585  0.2551956  )
       169           Al  tau( 169) = (  0.5011587  0.4954124  0.4981049  )
       170           Al  tau( 170) = (  0.5097368  0.6171338  0.6263017  )
       171           Al  tau( 171) = (  0.6311882  0.4963128  0.6240140  )
       172           Al  tau( 172) = (  0.6249857  0.6106746  0.4986682  )
       173           Al  tau( 173) = (  0.5090741  0.5015347  0.7590198  )
       174           Al  tau( 174) = (  0.5121234  0.6238632  0.8824450  )
       175           Al  tau( 175) = (  0.6223940  0.4970521  0.8834320  )
       176           Al  tau( 176) = (  0.6275742  0.6152763  0.7447301  )
       177           Al  tau( 177) = (  0.4993697  0.7514169  0.0009842  )
       178           Al  tau( 178) = (  0.5019826  0.8716460  0.1324790  )
       179           Al  tau( 179) = (  0.6175986  0.7507873  0.1420818  )
       180           Al  tau( 180) = (  0.6279097  0.8736348  0.0113490  )
       181           Al  tau( 181) = (  0.4964838  0.7479872  0.2557599  )
       182           Al  tau( 182) = (  0.4956389  0.8709803  0.3749008  )
       183           Al  tau( 183) = (  0.6197573  0.7499252  0.3817301  )
       184           Al  tau( 184) = (  0.6300158  0.8747657  0.2542320  )
       185           Al  tau( 185) = (  0.5006917  0.7486436  0.5071292  )
       186           Al  tau( 186) = (  0.5118328  0.8715232  0.6303688  )
       187           Al  tau( 187) = (  0.6312864  0.7392609  0.6185089  )
       188           Al  tau( 188) = (  0.6287644  0.8657930  0.4994634  )
       189           Al  tau( 189) = (  0.4976976  0.7465692  0.7523219  )
       190           Al  tau( 190) = (  0.5059956  0.8782228  0.8811116  )
       191           Al  tau( 191) = (  0.6282828  0.7485185  0.8781883  )
       192           Al  tau( 192) = (  0.6201364  0.8759917  0.7630324  )
       193           Al  tau( 193) = (  0.7568675  0.9949212  0.0008883  )
       194           Al  tau( 194) = (  0.7446784  0.1272343  0.1196129  )
       195           Al  tau( 195) = (  0.8755655  0.0036968  0.1262179  )
       196           Al  tau( 196) = (  0.8747581  0.1226694  0.9986802  )
       197           Al  tau( 197) = (  0.7460901  0.0016363  0.2475265  )
       198           Al  tau( 198) = (  0.7534999  0.1293343  0.3761181  )
       199           Al  tau( 199) = (  0.8809514  0.0013375  0.3771170  )
       200           Al  tau( 200) = (  0.8770677  0.1184974  0.2471414  )
       201           Al  tau( 201) = (  0.7436281  0.0070347  0.5052833  )
       202           Al  tau( 202) = (  0.7505756  0.1336799  0.6204347  )
       203           Al  tau( 203) = (  0.8701572  0.0037602  0.6241105  )
       204           Al  tau( 204) = (  0.8783247  0.1195733  0.5012230  )
       205           Al  tau( 205) = (  0.7544030  0.0026656  0.7543877  )
       206           Al  tau( 206) = (  0.7506339  0.1279792  0.8740803  )
       207           Al  tau( 207) = (  0.8750051  0.0096946  0.8726806  )
       208           Al  tau( 208) = (  0.8735534  0.1295556  0.7539954  )
       209           Al  tau( 209) = (  0.7454166  0.2449009  0.0040735  )
       210           Al  tau( 210) = (  0.7507568  0.3909947  0.1153327  )
       211           Al  tau( 211) = (  0.8643184  0.2566083  0.1125568  )
       212           Al  tau( 212) = (  0.8665242  0.3796960  0.9921968  )
       213           Al  tau( 213) = (  0.7414692  0.2398769  0.2483419  )
       214           Al  tau( 214) = (  0.7516972  0.3762563  0.3763435  )
       215           Al  tau( 215) = (  0.8889067  0.2508653  0.3772820  )
       216           Al  tau( 216) = (  0.8623857  0.3612172  0.2420017  )
       217           Al  tau( 217) = (  0.7514673  0.2540304  0.5071803  )
       218           Al  tau( 218) = (  0.7489439  0.3695095  0.6238374  )
       219           Al  tau( 219) = (  0.8744253  0.2550116  0.6250301  )
       220           Al  tau( 220) = (  0.8777657  0.3748173  0.5062805  )
       221           Al  tau( 221) = (  0.7461725  0.2490686  0.7559608  )
       222           Al  tau( 222) = (  0.7522180  0.3750791  0.8735510  )
       223           Al  tau( 223) = (  0.8789603  0.2576096  0.8839084  )
       224           Al  tau( 224) = (  0.8686761  0.3816470  0.7462690  )
       225           Al  tau( 225) = (  0.7418935  0.5102009  0.9983460  )
       226           Al  tau( 226) = (  0.7452406  0.6271639  0.1304493  )
       227           Al  tau( 227) = (  0.8717035  0.4989108  0.1200218  )
       228           Al  tau( 228) = (  0.8695141  0.6212940  0.0027683  )
       229           Al  tau( 229) = (  0.7520317  0.5009394  0.2405054  )
       230           Al  tau( 230) = (  0.7590062  0.6184458  0.3609042  )
       231           Al  tau( 231) = (  0.8781468  0.4959112  0.3635539  )
       232           Al  tau( 232) = (  0.8790389  0.6218436  0.2403433  )
       233           Al  tau( 233) = (  0.7516272  0.4962881  0.4927029  )
       234           Al  tau( 234) = (  0.7483445  0.6293456  0.6170741  )
       235           Al  tau( 235) = (  0.8637671  0.5061625  0.6214923  )
       236           Al  tau( 236) = (  0.8760183  0.6179432  0.4949900  )
       237           Al  tau( 237) = (  0.7583291  0.5029924  0.7530156  )
       238           Al  tau( 238) = (  0.7500300  0.6314169  0.8778257  )
       239           Al  tau( 239) = (  0.8777725  0.5058753  0.8723327  )
       240           Al  tau( 240) = (  0.8833696  0.6265327  0.7569937  )
       241           Al  tau( 241) = (  0.7458391  0.7541646  0.0034885  )
       242           Al  tau( 242) = (  0.7581303  0.8764052  0.1270612  )
       243           Al  tau( 243) = (  0.8792810  0.7500580  0.1247445  )
       244           Al  tau( 244) = (  0.8843872  0.8781921  0.0047254  )
       245           Al  tau( 245) = (  0.7599876  0.7523613  0.2507801  )
       246           Al  tau( 246) = (  0.7626017  0.8780494  0.3663655  )
       247           Al  tau( 247) = (  0.8809905  0.7493594  0.3722918  )
       248           Al  tau( 248) = (  0.8824798  0.8689766  0.2522183  )
       249           Al  tau( 249) = (  0.7524850  0.7564206  0.4970607  )
       250           Al  tau( 250) = (  0.7498428  0.8747316  0.6289877  )
       251           Al  tau( 251) = (  0.8761117  0.7448768  0.6271087  )
       252           Al  tau( 252) = (  0.8809313  0.8769645  0.4914100  )
       253           Al  tau( 253) = (  0.7483453  0.7593029  0.7556943  )
       254           Al  tau( 254) = (  0.7589822  0.8826962  0.8694501  )
       255           Al  tau( 255) = (  0.8702896  0.7523677  0.8780772  )
       256           Al  tau( 256) = (  0.8780160  0.8762545  0.7495114  )

     number of k points=   260  Fermi-Dirac smearing, width (Ry)=  0.0019
                       cart. coord. in units 2pi/alat
        k(    1) = (   0.0000000   0.0000000   0.0000000), wk =   0.0039062
        k(    2) = (   0.0000000   0.0000000   0.1250000), wk =   0.0078125
        k(    3) = (   0.0000000   0.0000000   0.2500000), wk =   0.0078125
        k(    4) = (   0.0000000   0.0000000   0.3750000), wk =   0.0078125
        k(    5) = (   0.0000000   0.0000000  -0.5000000), wk =   0.0039062
        k(    6) = (   0.0000000   0.1250000   0.0000000), wk =   0.0078125
        k(    7) = (   0.0000000   0.1250000   0.1250000), wk =   0.0078125
        k(    8) = (   0.0000000   0.1250000   0.2500000), wk =   0.0078125
        k(    9) = (   0.0000000   0.1250000   0.3750000), wk =   0.0078125
        k(   10) = (   0.0000000   0.1250000  -0.5000000), wk =   0.0078125
        k(   11) = (   0.0000000   0.1250000  -0.3750000), wk =   0.0078125
        k(   12) = (   0.0000000   0.1250000  -0.2500000), wk =   0.0078125
        k(   13) = (   0.0000000   0.1250000  -0.1250000), wk =   0.0078125
        k(   14) = (   0.0000000   0.2500000   0.0000000), wk =   0.0078125
        k(   15) = (   0.0000000   0.2500000   0.1250000), wk =   0.0078125
        k(   16) = (   0.0000000   0.2500000   0.2500000), wk =   0.0078125
        k(   17) = (   0.0000000   0.2500000   0.3750000), wk =   0.0078125
        k(   18) = (   0.0000000   0.2500000  -0.5000000), wk =   0.0078125
        k(   19) = (   0.0000000   0.2500000  -0.3750000), wk =   0.0078125
        k(   20) = (   0.0000000   0.2500000  -0.2500000), wk =   0.0078125
        k(   21) = (   0.0000000   0.2500000  -0.1250000), wk =   0.0078125
        k(   22) = (   0.0000000   0.3750000   0.0000000), wk =   0.0078125
        k(   23) = (   0.0000000   0.3750000   0.1250000), wk =   0.0078125
        k(   24) = (   0.0000000   0.3750000   0.2500000), wk =   0.0078125
        k(   25) = (   0.0000000   0.3750000   0.3750000), wk =   0.0078125
        k(   26) = (   0.0000000   0.3750000  -0.5000000), wk =   0.0078125
        k(   27) = (   0.0000000   0.3750000  -0.3750000), wk =   0.0078125
        k(   28) = (   0.0000000   0.3750000  -0.2500000), wk =   0.0078125
        k(   29) = (   0.0000000   0.3750000  -0.1250000), wk =   0.0078125
        k(   30) = (   0.0000000  -0.5000000   0.0000000), wk =   0.0039062
        k(   31) = (   0.0000000  -0.5000000   0.1250000), wk =   0.0078125
        k(   32) = (   0.0000000  -0.5000000   0.2500000), wk =   0.0078125
        k(   33) = (   0.0000000  -0.5000000   0.3750000), wk =   0.0078125
        k(   34) = (   0.0000000  -0.5000000  -0.5000000), wk =   0.0039062
        k(   35) = (   0.1250000   0.0000000   0.0000000), wk =   0.0078125
        k(   36) = (   0.1250000   0.0000000   0.1250000), wk =   0.0078125
        k(   37) = (   0.1250000   0.0000000   0.2500000), wk =   0.0078125
        k(   38) = (   0.1250000   0.0000000   0.3750000), wk =   0.0078125
        k(   39) = (   0.1250000   0.0000000  -0.5000000), wk =   0.0078125
        k(   40) = (   0.1250000   0.0000000  -0.3750000), wk =   0.0078125
        k(   41) = (   0.1250000   0.0000000  -0.2500000), wk =   0.0078125
        k(   42) = (   0.1250000   0.0000000  -0.1250000), wk =   0.0078125
        k(   43) = (   0.1250000   0.1250000   0.0000000), wk =   0.0078125
        k(   44) = (   0.1250000   0.1250000   0.1250000), wk =   0.0078125
        k(   45) = (   0.1250000   0.1250000   0.2500000), wk =   0.0078125
        k(   46) = (   0.1250000   0.1250000   0.3750000), wk =   0.0078125
        k(   47) = (   0.1250000   0.1250000  -0.5000000), wk =   0.0078125
        k(   48) = (   0.1250000   0.1250000  -0.3750000), wk =   0.0078125
        k(   49) = (   0.1250000   0.1250000  -0.2500000), wk =   0.0078125
        k(   50) = (   0.1250000   0.1250000  -0.1250000), wk =   0.0078125
        k(   51) = (   0.1250000   0.2500000   0.0000000), wk =   0.0078125
        k(   52) = (   0.1250000   0.2500000   0.1250000), wk =   0.0078125
        k(   53) = (   0.1250000   0.2500000   0.2500000), wk =   0.0078125
        k(   54) = (   0.1250000   0.2500000   0.3750000), wk =   0.0078125
        k(   55) = (   0.1250000   0.2500000  -0.5000000), wk =   0.0078125
        k(   56) = (   0.1250000   0.2500000  -0.3750000), wk =   0.0078125
        k(   57) = (   0.1250000   0.2500000  -0.2500000), wk =   0.0078125
        k(   58) = (   0.1250000   0.2500000  -0.1250000), wk =   0.0078125
        k(   59) = (   0.1250000   0.3750000   0.0000000), wk =   0.0078125
        k(   60) = (   0.1250000   0.3750000   0.1250000), wk =   0.0078125
        k(   61) = (   0.1250000   0.3750000   0.2500000), wk =   0.0078125
        k(   62) = (   0.1250000   0.3750000   0.3750000), wk =   0.0078125
        k(   63) = (   0.1250000   0.3750000  -0.5000000), wk =   0.0078125
        k(   64) = (   0.1250000   0.3750000  -0.3750000), wk =   0.0078125
        k(   65) = (   0.1250000   0.3750000  -0.2500000), wk =   0.0078125
        k(   66) = (   0.1250000   0.3750000  -0.1250000), wk =   0.0078125
        k(   67) = (   0.1250000  -0.5000000   0.0000000), wk =   0.0078125
        k(   68) = (   0.1250000  -0.5000000   0.1250000), wk =   0.0078125
        k(   69) = (   0.1250000  -0.5000000   0.2500000), wk =   0.0078125
        k(   70) = (   0.1250000  -0.5000000   0.3750000), wk =   0.0078125
        k(   71) = (   0.1250000  -0.5000000  -0.5000000), wk =   0.0078125
        k(   72) = (   0.1250000  -0.5000000  -0.3750000), wk =   0.0078125
        k(   73) = (   0.1250000  -0.5000000  -0.2500000), wk =   0.0078125
        k(   74) = (   0.1250000  -0.5000000  -0.1250000), wk =   0.0078125
        k(   75) = (   0.1250000  -0.3750000   0.0000000), wk =   0.0078125
        k(   76) = (   0.1250000  -0.3750000   0.1250000), wk =   0.0078125
        k(   77) = (   0.1250000  -0.3750000   0.2500000), wk =   0.0078125
        k(   78) = (   0.1250000  -0.3750000   0.3750000), wk =   0.0078125
        k(   79) = (   0.1250000  -0.3750000  -0.5000000), wk =   0.0078125
        k(   80) = (   0.1250000  -0.3750000  -0.3750000), wk =   0.0078125
        k(   81) = (   0.1250000  -0.3750000  -0.2500000), wk =   0.0078125
        k(   82) = (   0.1250000  -0.3750000  -0.1250000), wk =   0.0078125
        k(   83) = (   0.1250000  -0.2500000   0.0000000), wk =   0.0078125
        k(   84) = (   0.1250000  -0.2500000   0.1250000), wk =   0.0078125
        k(   85) = (   0.1250000  -0.2500000   0.2500000), wk =   0.0078125
        k(   86) = (   0.1250000  -0.2500000   0.3750000), wk =   0.0078125
        k(   87) = (   0.1250000  -0.2500000  -0.5000000), wk =   0.0078125
        k(   88) = (   0.1250000  -0.2500000  -0.3750000), wk =   0.0078125
        k(   89) = (   0.1250000  -0.2500000  -0.2500000), wk =   0.0078125
        k(   90) = (   0.1250000  -0.2500000  -0.1250000), wk =   0.0078125
        k(   91) = (   0.1250000  -0.1250000   0.0000000), wk =   0.0078125
        k(   92) = (   0.1250000  -0.1250000   0.1250000), wk =   0.0078125
        k(   93) = (   0.1250000  -0.1250000   0.2500000), wk =   0.0078125
        k(   94) = (   0.1250000  -0.1250000   0.3750000), wk =   0.0078125
        k(   95) = (   0.1250000  -0.1250000  -0.5000000), wk =   0.0078125
        k(   96) = (   0.1250000  -0.1250000  -0.3750000), wk =   0.0078125
        k(   97) = (   0.1250000  -0.1250000  -0.2500000), wk =   0.0078125
        k(   98) = (   0.1250000  -0.1250000  -0.1250000), wk =   0.0078125
        k(   99) = (   0.2500000   0.0000000   0.0000000), wk =   0.0078125
        k(  100) = (   0.2500000   0.0000000   0.1250000), wk =   0.0078125
        k(  101) = (   0.2500000   0.0000000   0.2500000), wk =   0.0078125
        k(  102) = (   0.2500000   0.0000000   0.3750000), wk =   0.0078125
        k(  103) = (   0.2500000   0.0000000  -0.5000000), wk =   0.0078125
        k(  104) = (   0.2500000   0.0000000  -0.3750000), wk =   0.0078125
        k(  105) = (   0.2500000   0.0000000  -0.2500000), wk =   0.0078125
        k(  106) = (   0.2500000   0.0000000  -0.1250000), wk =   0.0078125
        k(  107) = (   0.2500000   0.1250000   0.0000000), wk =   0.0078125
        k(  108) = (   0.2500000   0.1250000   0.1250000), wk =   0.0078125
        k(  109) = (   0.2500000   0.1250000   0.2500000), wk =   0.0078125
        k(  110) = (   0.2500000   0.1250000   0.3750000), wk =   0.0078125
        k(  111) = (   0.2500000   0.1250000  -0.5000000), wk =   0.0078125
        k(  112) = (   0.2500000   0.1250000  -0.3750000), wk =   0.0078125
        k(  113) = (   0.2500000   0.1250000  -0.2500000), wk =   0.0078125
        k(  114) = (   0.2500000   0.1250000  -0.1250000), wk =   0.0078125
        k(  115) = (   0.2500000   0.2500000   0.0000000), wk =   0.0078125
        k(  116) = (   0.2500000   0.2500000   0.1250000), wk =   0.0078125
        k(  117) = (   0.2500000   0.2500000   0.2500000), wk =   0.0078125
        k(  118) = (   0.2500000   0.2500000   0.3750000), wk =   0.0078125
        k(  119) = (   0.2500000   0.2500000  -0.5000000), wk =   0.0078125
        k(  120) = (   0.2500000   0.2500000  -0.3750000), wk =   0.0078125
        k(  121) = (   0.2500000   0.2500000  -0.2500000), wk =   0.0078125
        k(  122) = (   0.2500000   0.2500000  -0.1250000), wk =   0.0078125
        k(  123) = (   0.2500000   0.3750000   0.0000000), wk =   0.0078125
        k(  124) = (   0.2500000   0.3750000   0.1250000), wk =   0.0078125
        k(  125) = (   0.2500000   0.3750000   0.2500000), wk =   0.0078125
        k(  126) = (   0.2500000   0.3750000   0.3750000), wk =   0.0078125
        k(  127) = (   0.2500000   0.3750000  -0.5000000), wk =   0.0078125
        k(  128) = (   0.2500000   0.3750000  -0.3750000), wk =   0.0078125
        k(  129) = (   0.2500000   0.3750000  -0.2500000), wk =   0.0078125
        k(  130) = (   0.2500000   0.3750000  -0.1250000), wk =   0.0078125
        k(  131) = (   0.2500000  -0.5000000   0.0000000), wk =   0.0078125
        k(  132) = (   0.2500000  -0.5000000   0.1250000), wk =   0.0078125
        k(  133) = (   0.2500000  -0.5000000   0.2500000), wk =   0.0078125
        k(  134) = (   0.2500000  -0.5000000   0.3750000), wk =   0.0078125
        k(  135) = (   0.2500000  -0.5000000  -0.5000000), wk =   0.0078125
        k(  136) = (   0.2500000  -0.5000000  -0.3750000), wk =   0.0078125
        k(  137) = (   0.2500000  -0.5000000  -0.2500000), wk =   0.0078125
        k(  138) = (   0.2500000  -0.5000000  -0.1250000), wk =   0.0078125
        k(  139) = (   0.2500000  -0.3750000   0.0000000), wk =   0.0078125
        k(  140) = (   0.2500000  -0.3750000   0.1250000), wk =   0.0078125
        k(  141) = (   0.2500000  -0.3750000   0.2500000), wk =   0.0078125
        k(  142) = (   0.2500000  -0.3750000   0.3750000), wk =   0.0078125
        k(  143) = (   0.2500000  -0.3750000  -0.5000000), wk =   0.0078125
        k(  144) = (   0.2500000  -0.3750000  -0.3750000), wk =   0.0078125
        k(  145) = (   0.2500000  -0.3750000  -0.2500000), wk =   0.0078125
        k(  146) = (   0.2500000  -0.3750000  -0.1250000), wk =   0.0078125
        k(  147) = (   0.2500000  -0.2500000   0.0000000), wk =   0.0078125
        k(  148) = (   0.2500000  -0.2500000   0.1250000), wk =   0.0078125
        k(  149) = (   0.2500000  -0.2500000   0.2500000), wk =   0.0078125
        k(  150) = (   0.2500000  -0.2500000   0.3750000), wk =   0.0078125
        k(  151) = (   0.2500000  -0.2500000  -0.5000000), wk =   0.0078125
        k(  152) = (   0.2500000  -0.2500000  -0.3750000), wk =   0.0078125
        k(  153) = (   0.2500000  -0.2500000  -0.2500000), wk =   0.0078125
        k(  154) = (   0.2500000  -0.2500000  -0.1250000), wk =   0.0078125
        k(  155) = (   0.2500000  -0.1250000   0.0000000), wk =   0.0078125
        k(  156) = (   0.2500000  -0.1250000   0.1250000), wk =   0.0078125
        k(  157) = (   0.2500000  -0.1250000   0.2500000), wk =   0.0078125
        k(  158) = (   0.2500000  -0.1250000   0.3750000), wk =   0.0078125
        k(  159) = (   0.2500000  -0.1250000  -0.5000000), wk =   0.0078125
        k(  160) = (   0.2500000  -0.1250000  -0.3750000), wk =   0.0078125
        k(  161) = (   0.2500000  -0.1250000  -0.2500000), wk =   0.0078125
        k(  162) = (   0.2500000  -0.1250000  -0.1250000), wk =   0.0078125
        k(  163) = (   0.3750000   0.0000000   0.0000000), wk =   0.0078125
        k(  164) = (   0.3750000   0.0000000   0.1250000), wk =   0.0078125
        k(  165) = (   0.3750000   0.0000000   0.2500000), wk =   0.0078125
        k(  166) = (   0.3750000   0.0000000   0.3750000), wk =   0.0078125
        k(  167) = (   0.3750000   0.0000000  -0.5000000), wk =   0.0078125
        k(  168) = (   0.3750000   0.0000000  -0.3750000), wk =   0.0078125
        k(  169) = (   0.3750000   0.0000000  -0.2500000), wk =   0.0078125
        k(  170) = (   0.3750000   0.0000000  -0.1250000), wk =   0.0078125
        k(  171) = (   0.3750000   0.1250000   0.0000000), wk =   0.0078125
        k(  172) = (   0.3750000   0.1250000   0.1250000), wk =   0.0078125
        k(  173) = (   0.3750000   0.1250000   0.2500000), wk =   0.0078125
        k(  174) = (   0.3750000   0.1250000   0.3750000), wk =   0.0078125
        k(  175) = (   0.3750000   0.1250000  -0.5000000), wk =   0.0078125
        k(  176) = (   0.3750000   0.1250000  -0.3750000), wk =   0.0078125
        k(  177) = (   0.3750000   0.1250000  -0.2500000), wk =   0.0078125
        k(  178) = (   0.3750000   0.1250000  -0.1250000), wk =   0.0078125
        k(  179) = (   0.3750000   0.2500000   0.0000000), wk =   0.0078125
        k(  180) = (   0.3750000   0.2500000   0.1250000), wk =   0.0078125
        k(  181) = (   0.3750000   0.2500000   0.2500000), wk =   0.0078125
        k(  182) = (   0.3750000   0.2500000   0.3750000), wk =   0.0078125
        k(  183) = (   0.3750000   0.2500000  -0.5000000), wk =   0.0078125
        k(  184) = (   0.3750000   0.2500000  -0.3750000), wk =   0.0078125
        k(  185) = (   0.3750000   0.2500000  -0.2500000), wk =   0.0078125
        k(  186) = (   0.3750000   0.2500000  -0.1250000), wk =   0.0078125
        k(  187) = (   0.3750000   0.3750000   0.0000000), wk =   0.0078125
        k(  188) = (   0.3750000   0.3750000   0.1250000), wk =   0.0078125
        k(  189) = (   0.3750000   0.3750000   0.2500000), wk =   0.0078125
        k(  190) = (   0.3750000   0.3750000   0.3750000), wk =   0.0078125
        k(  191) = (   0.3750000   0.3750000  -0.5000000), wk =   0.0078125
        k(  192) = (   0.3750000   0.3750000  -0.3750000), wk =   0.0078125
        k(  193) = (   0.3750000   0.3750000  -0.2500000), wk =   0.0078125
        k(  194) = (   0.3750000   0.3750000  -0.1250000), wk =   0.0078125
        k(  195) = (   0.3750000  -0.5000000   0.0000000), wk =   0.0078125
        k(  196) = (   0.3750000  -0.5000000   0.1250000), wk =   0.0078125
        k(  197) = (   0.3750000  -0.5000000   0.2500000), wk =   0.0078125
        k(  198) = (   0.3750000  -0.5000000   0.3750000), wk =   0.0078125
        k(  199) = (   0.3750000  -0.5000000  -0.5000000), wk =   0.0078125
        k(  200) = (   0.3750000  -0.5000000  -0.3750000), wk =   0.0078125
        k(  201) = (   0.3750000  -0.5000000  -0.2500000), wk =   0.0078125
        k(  202) = (   0.3750000  -0.5000000  -0.1250000), wk =   0.0078125
        k(  203) = (   0.3750000  -0.3750000   0.0000000), wk =   0.0078125
        k(  204) = (   0.3750000  -0.3750000   0.1250000), wk =   0.0078125
        k(  205) = (   0.3750000  -0.3750000   0.2500000), wk =   0.0078125
        k(  206) = (   0.3750000  -0.3750000   0.3750000), wk =   0.0078125
        k(  207) = (   0.3750000  -0.3750000  -0.5000000), wk =   0.0078125
        k(  208) = (   0.3750000  -0.3750000  -0.3750000), wk =   0.0078125
        k(  209) = (   0.3750000  -0.3750000  -0.2500000), wk =   0.0078125
        k(  210) = (   0.3750000  -0.3750000  -0.1250000), wk =   0.0078125
        k(  211) = (   0.3750000  -0.2500000   0.0000000), wk =   0.0078125
        k(  212) = (   0.3750000  -0.2500000   0.1250000), wk =   0.0078125
        k(  213) = (   0.3750000  -0.2500000   0.2500000), wk =   0.0078125
        k(  214) = (   0.3750000  -0.2500000   0.3750000), wk =   0.0078125
        k(  215) = (   0.3750000  -0.2500000  -0.5000000), wk =   0.0078125
        k(  216) = (   0.3750000  -0.2500000  -0.3750000), wk =   0.0078125
        k(  217) = (   0.3750000  -0.2500000  -0.2500000), wk =   0.0078125
        k(  218) = (   0.3750000  -0.2500000  -0.1250000), wk =   0.0078125
        k(  219) = (   0.3750000  -0.1250000   0.0000000), wk =   0.0078125
        k(  220) = (   0.3750000  -0.1250000   0.1250000), wk =   0.0078125
        k(  221) = (   0.3750000  -0.1250000   0.2500000), wk =   0.0078125
        k(  222) = (   0.3750000  -0.1250000   0.3750000), wk =   0.0078125
        k(  223) = (   0.3750000  -0.1250000  -0.5000000), wk =   0.0078125
        k(  224) = (   0.3750000  -0.1250000  -0.3750000), wk =   0.0078125
        k(  225) = (   0.3750000  -0.1250000  -0.2500000), wk =   0.0078125
        k(  226) = (   0.3750000  -0.1250000  -0.1250000), wk =   0.0078125
        k(  227) = (  -0.5000000   0.0000000   0.0000000), wk =   0.0039062
        k(  228) = (  -0.5000000   0.0000000   0.1250000), wk =   0.0078125
        k(  229) = (  -0.5000000   0.0000000   0.2500000), wk =   0.0078125
        k(  230) = (  -0.5000000   0.0000000   0.3750000), wk =   0.0078125
        k(  231) = (  -0.5000000   0.0000000  -0.5000000), wk =   0.0039062
        k(  232) = (  -0.5000000   0.1250000   0.0000000), wk =   0.0078125
        k(  233) = (  -0.5000000   0.1250000   0.1250000), wk =   0.0078125
        k(  234) = (  -0.5000000   0.1250000   0.2500000), wk =   0.0078125
        k(  235) = (  -0.5000000   0.1250000   0.3750000), wk =   0.0078125
        k(  236) = (  -0.5000000   0.1250000  -0.5000000), wk =   0.0078125
        k(  237) = (  -0.5000000   0.1250000  -0.3750000), wk =   0.0078125
        k(  238) = (  -0.5000000   0.1250000  -0.2500000), wk =   0.0078125
        k(  239) = (  -0.5000000   0.1250000  -0.1250000), wk =   0.0078125
        k(  240) = (  -0.5000000   0.2500000   0.0000000), wk =   0.0078125
        k(  241) = (  -0.5000000   0.2500000   0.1250000), wk =   0.0078125
        k(  242) = (  -0.5000000   0.2500000   0.2500000), wk =   0.0078125
        k(  243) = (  -0.5000000   0.2500000   0.3750000), wk =   0.0078125
        k(  244) = (  -0.5000000   0.2500000  -0.5000000), wk =   0.0078125
        k(  245) = (  -0.5000000   0.2500000  -0.3750000), wk =   0.0078125
        k(  246) = (  -0.5000000   0.2500000  -0.2500000), wk =   0.0078125
        k(  247) = (  -0.5000000   0.2500000  -0.1250000), wk =   0.0078125
        k(  248) = (  -0.5000000   0.3750000   0.0000000), wk =   0.0078125
        k(  249) = (  -0.5000000   0.3750000   0.1250000), wk =   0.0078125
        k(  250) = (  -0.5000000   0.3750000   0.2500000), wk =   0.0078125
        k(  251) = (  -0.5000000   0.3750000   0.3750000), wk =   0.0078125
        k(  252) = (  -0.5000000   0.3750000  -0.5000000), wk =   0.0078125
        k(  253) = (  -0.5000000   0.3750000  -0.3750000), wk =   0.0078125
        k(  254) = (  -0.5000000   0.3750000  -0.2500000), wk =   0.0078125
        k(  255) = (  -0.5000000   0.3750000  -0.1250000), wk =   0.0078125
        k(  256) = (  -0.5000000  -0.5000000   0.0000000), wk =   0.0039062
        k(  257) = (  -0.5000000  -0.5000000   0.1250000), wk =   0.0078125
        k(  258) = (  -0.5000000  -0.5000000   0.2500000), wk =   0.0078125
        k(  259) = (  -0.5000000  -0.5000000   0.3750000), wk =   0.0078125
        k(  260) = (  -0.5000000  -0.5000000  -0.5000000), wk =   0.0039062

                       cryst. coord.
        k(    1) = (   0.0000000   0.0000000   0.0000000), wk =   0.0039062
        k(    2) = (   0.0000000   0.0000000   0.1250000), wk =   0.0078125
        k(    3) = (   0.0000000   0.0000000   0.2500000), wk =   0.0078125
        k(    4) = (   0.0000000   0.0000000   0.3750000), wk =   0.0078125
        k(    5) = (   0.0000000   0.0000000  -0.5000000), wk =   0.0039062
        k(    6) = (   0.0000000   0.1250000   0.0000000), wk =   0.0078125
        k(    7) = (   0.0000000   0.1250000   0.1250000), wk =   0.0078125
        k(    8) = (   0.0000000   0.1250000   0.2500000), wk =   0.0078125
        k(    9) = (   0.0000000   0.1250000   0.3750000), wk =   0.0078125
        k(   10) = (   0.0000000   0.1250000  -0.5000000), wk =   0.0078125
        k(   11) = (   0.0000000   0.1250000  -0.3750000), wk =   0.0078125
        k(   12) = (   0.0000000   0.1250000  -0.2500000), wk =   0.0078125
        k(   13) = (   0.0000000   0.1250000  -0.1250000), wk =   0.0078125
        k(   14) = (   0.0000000   0.2500000   0.0000000), wk =   0.0078125
        k(   15) = (   0.0000000   0.2500000   0.1250000), wk =   0.0078125
        k(   16) = (   0.0000000   0.2500000   0.2500000), wk =   0.0078125
        k(   17) = (   0.0000000   0.2500000   0.3750000), wk =   0.0078125
        k(   18) = (   0.0000000   0.2500000  -0.5000000), wk =   0.0078125
        k(   19) = (   0.0000000   0.2500000  -0.3750000), wk =   0.0078125
        k(   20) = (   0.0000000   0.2500000  -0.2500000), wk =   0.0078125
        k(   21) = (   0.0000000   0.2500000  -0.1250000), wk =   0.0078125
        k(   22) = (   0.0000000   0.3750000   0.0000000), wk =   0.0078125
        k(   23) = (   0.0000000   0.3750000   0.1250000), wk =   0.0078125
        k(   24) = (   0.0000000   0.3750000   0.2500000), wk =   0.0078125
        k(   25) = (   0.0000000   0.3750000   0.3750000), wk =   0.0078125
        k(   26) = (   0.0000000   0.3750000  -0.5000000), wk =   0.0078125
        k(   27) = (   0.0000000   0.3750000  -0.3750000), wk =   0.0078125
        k(   28) = (   0.0000000   0.3750000  -0.2500000), wk =   0.0078125
        k(   29) = (   0.0000000   0.3750000  -0.1250000), wk =   0.0078125
        k(   30) = (   0.0000000  -0.5000000   0.0000000), wk =   0.0039062
        k(   31) = (   0.0000000  -0.5000000   0.1250000), wk =   0.0078125
        k(   32) = (   0.0000000  -0.5000000   0.2500000), wk =   0.0078125
        k(   33) = (   0.0000000  -0.5000000   0.3750000), wk =   0.0078125
        k(   34) = (   0.0000000  -0.5000000  -0.5000000), wk =   0.0039062
        k(   35) = (   0.1250000   0.0000000   0.0000000), wk =   0.0078125
        k(   36) = (   0.1250000   0.0000000   0.1250000), wk =   0.0078125
        k(   37) = (   0.1250000   0.0000000   0.2500000), wk =   0.0078125
        k(   38) = (   0.1250000   0.0000000   0.3750000), wk =   0.0078125
        k(   39) = (   0.1250000   0.0000000  -0.5000000), wk =   0.0078125
        k(   40) = (   0.1250000   0.0000000  -0.3750000), wk =   0.0078125
        k(   41) = (   0.1250000   0.0000000  -0.2500000), wk =   0.0078125
        k(   42) = (   0.1250000   0.0000000  -0.1250000), wk =   0.0078125
        k(   43) = (   0.1250000   0.1250000   0.0000000), wk =   0.0078125
        k(   44) = (   0.1250000   0.1250000   0.1250000), wk =   0.0078125
        k(   45) = (   0.1250000   0.1250000   0.2500000), wk =   0.0078125
        k(   46) = (   0.1250000   0.1250000   0.3750000), wk =   0.0078125
        k(   47) = (   0.1250000   0.1250000  -0.5000000), wk =   0.0078125
        k(   48) = (   0.1250000   0.1250000  -0.3750000), wk =   0.0078125
        k(   49) = (   0.1250000   0.1250000  -0.2500000), wk =   0.0078125
        k(   50) = (   0.1250000   0.1250000  -0.1250000), wk =   0.0078125
        k(   51) = (   0.1250000   0.2500000   0.0000000), wk =   0.0078125
        k(   52) = (   0.1250000   0.2500000   0.1250000), wk =   0.0078125
        k(   53) = (   0.1250000   0.2500000   0.2500000), wk =   0.0078125
        k(   54) = (   0.1250000   0.2500000   0.3750000), wk =   0.0078125
        k(   55) = (   0.1250000   0.2500000  -0.5000000), wk =   0.0078125
        k(   56) = (   0.1250000   0.2500000  -0.3750000), wk =   0.0078125
        k(   57) = (   0.1250000   0.2500000  -0.2500000), wk =   0.0078125
        k(   58) = (   0.1250000   0.2500000  -0.1250000), wk =   0.0078125
        k(   59) = (   0.1250000   0.3750000   0.0000000), wk =   0.0078125
        k(   60) = (   0.1250000   0.3750000   0.1250000), wk =   0.0078125
        k(   61) = (   0.1250000   0.3750000   0.2500000), wk =   0.0078125
        k(   62) = (   0.1250000   0.3750000   0.3750000), wk =   0.0078125
        k(   63) = (   0.1250000   0.3750000  -0.5000000), wk =   0.0078125
        k(   64) = (   0.1250000   0.3750000  -0.3750000), wk =   0.0078125
        k(   65) = (   0.1250000   0.3750000  -0.2500000), wk =   0.0078125
        k(   66) = (   0.1250000   0.3750000  -0.1250000), wk =   0.0078125
        k(   67) = (   0.1250000  -0.5000000   0.0000000), wk =   0.0078125
        k(   68) = (   0.1250000  -0.5000000   0.1250000), wk =   0.0078125
        k(   69) = (   0.1250000  -0.5000000   0.2500000), wk =   0.0078125
        k(   70) = (   0.1250000  -0.5000000   0.3750000), wk =   0.0078125
        k(   71) = (   0.1250000  -0.5000000  -0.5000000), wk =   0.0078125
        k(   72) = (   0.1250000  -0.5000000  -0.3750000), wk =   0.0078125
        k(   73) = (   0.1250000  -0.5000000  -0.2500000), wk =   0.0078125
        k(   74) = (   0.1250000  -0.5000000  -0.1250000), wk =   0.0078125
        k(   75) = (   0.1250000  -0.3750000   0.0000000), wk =   0.0078125
        k(   76) = (   0.1250000  -0.3750000   0.1250000), wk =   0.0078125
        k(   77) = (   0.1250000  -0.3750000   0.2500000), wk =   0.0078125
        k(   78) = (   0.1250000  -0.3750000   0.3750000), wk =   0.0078125
        k(   79) = (   0.1250000  -0.3750000  -0.5000000), wk =   0.0078125
        k(   80) = (   0.1250000  -0.3750000  -0.3750000), wk =   0.0078125
        k(   81) = (   0.1250000  -0.3750000  -0.2500000), wk =   0.0078125
        k(   82) = (   0.1250000  -0.3750000  -0.1250000), wk =   0.0078125
        k(   83) = (   0.1250000  -0.2500000   0.0000000), wk =   0.0078125
        k(   84) = (   0.1250000  -0.2500000   0.1250000), wk =   0.0078125
        k(   85) = (   0.1250000  -0.2500000   0.2500000), wk =   0.0078125
        k(   86) = (   0.1250000  -0.2500000   0.3750000), wk =   0.0078125
        k(   87) = (   0.1250000  -0.2500000  -0.5000000), wk =   0.0078125
        k(   88) = (   0.1250000  -0.2500000  -0.3750000), wk =   0.0078125
        k(   89) = (   0.1250000  -0.2500000  -0.2500000), wk =   0.0078125
        k(   90) = (   0.1250000  -0.2500000  -0.1250000), wk =   0.0078125
        k(   91) = (   0.1250000  -0.1250000   0.0000000), wk =   0.0078125
        k(   92) = (   0.1250000  -0.1250000   0.1250000), wk =   0.0078125
        k(   93) = (   0.1250000  -0.1250000   0.2500000), wk =   0.0078125
        k(   94) = (   0.1250000  -0.1250000   0.3750000), wk =   0.0078125
        k(   95) = (   0.1250000  -0.1250000  -0.5000000), wk =   0.0078125
        k(   96) = (   0.1250000  -0.1250000  -0.3750000), wk =   0.0078125
        k(   97) = (   0.1250000  -0.1250000  -0.2500000), wk =   0.0078125
        k(   98) = (   0.1250000  -0.1250000  -0.1250000), wk =   0.0078125
        k(   99) = (   0.2500000   0.0000000   0.0000000), wk =   0.0078125
        k(  100) = (   0.2500000   0.0000000   0.1250000), wk =   0.0078125
        k(  101) = (   0.2500000   0.0000000   0.2500000), wk =   0.0078125
        k(  102) = (   0.2500000   0.0000000   0.3750000), wk =   0.0078125
        k(  103) = (   0.2500000   0.0000000  -0.5000000), wk =   0.0078125
        k(  104) = (   0.2500000   0.0000000  -0.3750000), wk =   0.0078125
        k(  105) = (   0.2500000   0.0000000  -0.2500000), wk =   0.0078125
        k(  106) = (   0.2500000   0.0000000  -0.1250000), wk =   0.0078125
        k(  107) = (   0.2500000   0.1250000   0.0000000), wk =   0.0078125
        k(  108) = (   0.2500000   0.1250000   0.1250000), wk =   0.0078125
        k(  109) = (   0.2500000   0.1250000   0.2500000), wk =   0.0078125
        k(  110) = (   0.2500000   0.1250000   0.3750000), wk =   0.0078125
        k(  111) = (   0.2500000   0.1250000  -0.5000000), wk =   0.0078125
        k(  112) = (   0.2500000   0.1250000  -0.3750000), wk =   0.0078125
        k(  113) = (   0.2500000   0.1250000  -0.2500000), wk =   0.0078125
        k(  114) = (   0.2500000   0.1250000  -0.1250000), wk =   0.0078125
        k(  115) = (   0.2500000   0.2500000   0.0000000), wk =   0.0078125
        k(  116) = (   0.2500000   0.2500000   0.1250000), wk =   0.0078125
        k(  117) = (   0.2500000   0.2500000   0.2500000), wk =   0.0078125
        k(  118) = (   0.2500000   0.2500000   0.3750000), wk =   0.0078125
        k(  119) = (   0.2500000   0.2500000  -0.5000000), wk =   0.0078125
        k(  120) = (   0.2500000   0.2500000  -0.3750000), wk =   0.0078125
        k(  121) = (   0.2500000   0.2500000  -0.2500000), wk =   0.0078125
        k(  122) = (   0.2500000   0.2500000  -0.1250000), wk =   0.0078125
        k(  123) = (   0.2500000   0.3750000   0.0000000), wk =   0.0078125
        k(  124) = (   0.2500000   0.3750000   0.1250000), wk =   0.0078125
        k(  125) = (   0.2500000   0.3750000   0.2500000), wk =   0.0078125
        k(  126) = (   0.2500000   0.3750000   0.3750000), wk =   0.0078125
        k(  127) = (   0.2500000   0.3750000  -0.5000000), wk =   0.0078125
        k(  128) = (   0.2500000   0.3750000  -0.3750000), wk =   0.0078125
        k(  129) = (   0.2500000   0.3750000  -0.2500000), wk =   0.0078125
        k(  130) = (   0.2500000   0.3750000  -0.1250000), wk =   0.0078125
        k(  131) = (   0.2500000  -0.5000000   0.0000000), wk =   0.0078125
        k(  132) = (   0.2500000  -0.5000000   0.1250000), wk =   0.0078125
        k(  133) = (   0.2500000  -0.5000000   0.2500000), wk =   0.0078125
        k(  134) = (   0.2500000  -0.5000000   0.3750000), wk =   0.0078125
        k(  135) = (   0.2500000  -0.5000000  -0.5000000), wk =   0.0078125
        k(  136) = (   0.2500000  -0.5000000  -0.3750000), wk =   0.0078125
        k(  137) = (   0.2500000  -0.5000000  -0.2500000), wk =   0.0078125
        k(  138) = (   0.2500000  -0.5000000  -0.1250000), wk =   0.0078125
        k(  139) = (   0.2500000  -0.3750000   0.0000000), wk =   0.0078125
        k(  140) = (   0.2500000  -0.3750000   0.1250000), wk =   0.0078125
        k(  141) = (   0.2500000  -0.3750000   0.2500000), wk =   0.0078125
        k(  142) = (   0.2500000  -0.3750000   0.3750000), wk =   0.0078125
        k(  143) = (   0.2500000  -0.3750000  -0.5000000), wk =   0.0078125
        k(  144) = (   0.2500000  -0.3750000  -0.3750000), wk =   0.0078125
        k(  145) = (   0.2500000  -0.3750000  -0.2500000), wk =   0.0078125
        k(  146) = (   0.2500000  -0.3750000  -0.1250000), wk =   0.0078125
        k(  147) = (   0.2500000  -0.2500000   0.0000000), wk =   0.0078125
        k(  148) = (   0.2500000  -0.2500000   0.1250000), wk =   0.0078125
        k(  149) = (   0.2500000  -0.2500000   0.2500000), wk =   0.0078125
        k(  150) = (   0.2500000  -0.2500000   0.3750000), wk =   0.0078125
        k(  151) = (   0.2500000  -0.2500000  -0.5000000), wk =   0.0078125
        k(  152) = (   0.2500000  -0.2500000  -0.3750000), wk =   0.0078125
        k(  153) = (   0.2500000  -0.2500000  -0.2500000), wk =   0.0078125
        k(  154) = (   0.2500000  -0.2500000  -0.1250000), wk =   0.0078125
        k(  155) = (   0.2500000  -0.1250000   0.0000000), wk =   0.0078125
        k(  156) = (   0.2500000  -0.1250000   0.1250000), wk =   0.0078125
        k(  157) = (   0.2500000  -0.1250000   0.2500000), wk =   0.0078125
        k(  158) = (   0.2500000  -0.1250000   0.3750000), wk =   0.0078125
        k(  159) = (   0.2500000  -0.1250000  -0.5000000), wk =   0.0078125
        k(  160) = (   0.2500000  -0.1250000  -0.3750000), wk =   0.0078125
        k(  161) = (   0.2500000  -0.1250000  -0.2500000), wk =   0.0078125
        k(  162) = (   0.2500000  -0.1250000  -0.1250000), wk =   0.0078125
        k(  163) = (   0.3750000   0.0000000   0.0000000), wk =   0.0078125
        k(  164) = (   0.3750000   0.0000000   0.1250000), wk =   0.0078125
        k(  165) = (   0.3750000   0.0000000   0.2500000), wk =   0.0078125
        k(  166) = (   0.3750000   0.0000000   0.3750000), wk =   0.0078125
        k(  167) = (   0.3750000   0.0000000  -0.5000000), wk =   0.0078125
        k(  168) = (   0.3750000   0.0000000  -0.3750000), wk =   0.0078125
        k(  169) = (   0.3750000   0.0000000  -0.2500000), wk =   0.0078125
        k(  170) = (   0.3750000   0.0000000  -0.1250000), wk =   0.0078125
        k(  171) = (   0.3750000   0.1250000   0.0000000), wk =   0.0078125
        k(  172) = (   0.3750000   0.1250000   0.1250000), wk =   0.0078125
        k(  173) = (   0.3750000   0.1250000   0.2500000), wk =   0.0078125
        k(  174) = (   0.3750000   0.1250000   0.3750000), wk =   0.0078125
        k(  175) = (   0.3750000   0.1250000  -0.5000000), wk =   0.0078125
        k(  176) = (   0.3750000   0.1250000  -0.3750000), wk =   0.0078125
        k(  177) = (   0.3750000   0.1250000  -0.2500000), wk =   0.0078125
        k(  178) = (   0.3750000   0.1250000  -0.1250000), wk =   0.0078125
        k(  179) = (   0.3750000   0.2500000   0.0000000), wk =   0.0078125
        k(  180) = (   0.3750000   0.2500000   0.1250000), wk =   0.0078125
        k(  181) = (   0.3750000   0.2500000   0.2500000), wk =   0.0078125
        k(  182) = (   0.3750000   0.2500000   0.3750000), wk =   0.0078125
        k(  183) = (   0.3750000   0.2500000  -0.5000000), wk =   0.0078125
        k(  184) = (   0.3750000   0.2500000  -0.3750000), wk =   0.0078125
        k(  185) = (   0.3750000   0.2500000  -0.2500000), wk =   0.0078125
        k(  186) = (   0.3750000   0.2500000  -0.1250000), wk =   0.0078125
        k(  187) = (   0.3750000   0.3750000   0.0000000), wk =   0.0078125
        k(  188) = (   0.3750000   0.3750000   0.1250000), wk =   0.0078125
        k(  189) = (   0.3750000   0.3750000   0.2500000), wk =   0.0078125
        k(  190) = (   0.3750000   0.3750000   0.3750000), wk =   0.0078125
        k(  191) = (   0.3750000   0.3750000  -0.5000000), wk =   0.0078125
        k(  192) = (   0.3750000   0.3750000  -0.3750000), wk =   0.0078125
        k(  193) = (   0.3750000   0.3750000  -0.2500000), wk =   0.0078125
        k(  194) = (   0.3750000   0.3750000  -0.1250000), wk =   0.0078125
        k(  195) = (   0.3750000  -0.5000000   0.0000000), wk =   0.0078125
        k(  196) = (   0.3750000  -0.5000000   0.1250000), wk =   0.0078125
        k(  197) = (   0.3750000  -0.5000000   0.2500000), wk =   0.0078125
        k(  198) = (   0.3750000  -0.5000000   0.3750000), wk =   0.0078125
        k(  199) = (   0.3750000  -0.5000000  -0.5000000), wk =   0.0078125
        k(  200) = (   0.3750000  -0.5000000  -0.3750000), wk =   0.0078125
        k(  201) = (   0.3750000  -0.5000000  -0.2500000), wk =   0.0078125
        k(  202) = (   0.3750000  -0.5000000  -0.1250000), wk =   0.0078125
        k(  203) = (   0.3750000  -0.3750000   0.0000000), wk =   0.0078125
        k(  204) = (   0.3750000  -0.3750000   0.1250000), wk =   0.0078125
        k(  205) = (   0.3750000  -0.3750000   0.2500000), wk =   0.0078125
        k(  206) = (   0.3750000  -0.3750000   0.3750000), wk =   0.0078125
        k(  207) = (   0.3750000  -0.3750000  -0.5000000), wk =   0.0078125
        k(  208) = (   0.3750000  -0.3750000  -0.3750000), wk =   0.0078125
        k(  209) = (   0.3750000  -0.3750000  -0.2500000), wk =   0.0078125
        k(  210) = (   0.3750000  -0.3750000  -0.1250000), wk =   0.0078125
        k(  211) = (   0.3750000  -0.2500000   0.0000000), wk =   0.0078125
        k(  212) = (   0.3750000  -0.2500000   0.1250000), wk =   0.0078125
        k(  213) = (   0.3750000  -0.2500000   0.2500000), wk =   0.0078125
        k(  214) = (   0.3750000  -0.2500000   0.3750000), wk =   0.0078125
        k(  215) = (   0.3750000  -0.2500000  -0.5000000), wk =   0.0078125
        k(  216) = (   0.3750000  -0.2500000  -0.3750000), wk =   0.0078125
        k(  217) = (   0.3750000  -0.2500000  -0.2500000), wk =   0.0078125
        k(  218) = (   0.3750000  -0.2500000  -0.1250000), wk =   0.0078125
        k(  219) = (   0.3750000  -0.1250000   0.0000000), wk =   0.0078125
        k(  220) = (   0.3750000  -0.1250000   0.1250000), wk =   0.0078125
        k(  221) = (   0.3750000  -0.1250000   0.2500000), wk =   0.0078125
        k(  222) = (   0.3750000  -0.1250000   0.3750000), wk =   0.0078125
[...]
     atom   31 type  1   force =     0.00005229    0.00006830    0.00012014
     atom   32 type  1   force =     0.00006032    0.00003619    0.00009037
     atom   33 type  1   force =     0.00001727   -0.00009400    0.00000928
     atom   34 type  1   force =    -0.00004473   -0.00017566    0.00007013
     atom   35 type  1   force =    -0.00001579   -0.00003920    0.00006748
     atom   36 type  1   force =    -0.00000966   -0.00007157    0.00003773
     atom   37 type  1   force =    -0.00012576   -0.00011424   -0.00004663
     atom   38 type  1   force =    -0.00005715   -0.00009163   -0.00001128
     atom   39 type  1   force =    -0.00004890   -0.00001153   -0.00003919
     atom   40 type  1   force =    -0.00001433   -0.00026476    0.00000215
     atom   41 type  1   force =    -0.00012083   -0.00004926   -0.00009952
     atom   42 type  1   force =    -0.00003814   -0.00001691    0.00003546
     atom   43 type  1   force =     0.00001400    0.00012801   -0.00008894
     atom   44 type  1   force =     0.00001177   -0.00010256   -0.00000192
     atom   45 type  1   force =    -0.00015835    0.00005027    0.00006444
     atom   46 type  1   force =    -0.00007721   -0.00005307   -0.00007634
     atom   47 type  1   force =    -0.00010405   -0.00006301    0.00011004
     atom   48 type  1   force =    -0.00005416    0.00015751   -0.00004581
     atom   49 type  1   force =    -0.00004559   -0.00016709   -0.00001157
     atom   50 type  1   force =    -0.00010460    0.00003909    0.00003855
     atom   51 type  1   force =    -0.00006153   -0.00015480   -0.00013613
     atom   52 type  1   force =     0.00010707    0.00002499   -0.00001931
     atom   53 type  1   force =    -0.00019325   -0.00019443    0.00000648
     atom   54 type  1   force =    -0.00011967    0.00002603    0.00011874
     atom   55 type  1   force =    -0.00002141   -0.00017647    0.00011491
     atom   56 type  1   force =     0.00004332    0.00015965    0.00002278
     atom   57 type  1   force =    -0.00009673   -0.00008226   -0.00001949
     atom   58 type  1   force =    -0.00003062    0.00002297   -0.00002607
     atom   59 type  1   force =     0.00006712   -0.00009432    0.00012874
     atom   60 type  1   force =     0.00002268    0.00001503    0.00000644
     atom   61 type  1   force =     0.00003009   -0.00014611    0.00001528
     atom   62 type  1   force =    -0.00011609    0.00004444   -0.00006279
     atom   63 type  1   force =     0.00005406   -0.00013066   -0.00010544
     atom   64 type  1   force =     0.00000154   -0.00008453   -0.00006370
     atom   65 type  1   force =     0.00001893   -0.00002638   -0.00000252
     atom   66 type  1   force =     0.00000773    0.00014903    0.00008768
     atom   67 type  1   force =     0.00013952    0.00010735    0.00005930
     atom   68 type  1   force =     0.00012681    0.00003604    0.00015441
     atom   69 type  1   force =     0.00008099    0.00018405   -0.00000521
     atom   70 type  1   force =     0.00011420    0.00003708   -0.00009781
     atom   71 type  1   force =     0.00014230    0.00000079   -0.00007857
     atom   72 type  1   force =     0.00004619   -0.00001390   -0.00004487
     atom   73 type  1   force =     0.00003498   -0.00007150   -0.00004495
     atom   74 type  1   force =     0.00001072   -0.00010144   -0.00002005
     atom   75 type  1   force =     0.00004110   -0.00008578    0.00001991
     atom   76 type  1   force =     0.00014586    0.00006641   -0.00016515
     atom   77 type  1   force =     0.00001816   -0.00001930   -0.00001970
     atom   78 type  1   force =    -0.00001959    0.00000616   -0.00000253
     atom   79 type  1   force =     0.00009253   -0.00006799    0.00001633
     atom   80 type  1   force =     0.00007035   -0.00007894    0.00008278
     atom   81 type  1   force =    -0.00002823    0.00009363    0.00023508
     atom   82 type  1   force =     0.00001395   -0.00008064    0.00007411
     atom   83 type  1   force =    -0.00007264    0.00003601    0.00003704
     atom   84 type  1   force =     0.00004822   -0.00000382    0.00010808
     atom   85 type  1   force =     0.00002349    0.00004819   -0.00018209
     atom   86 type  1   force =     0.00006583   -0.00001708   -0.00001910
     atom   87 type  1   force =     0.00010925    0.00006542   -0.00000738
     atom   88 type  1   force =     0.00002876   -0.00004344   -0.00004122
     atom   89 type  1   force =     0.00008681    0.00006607   -0.00015353
     atom   90 type  1   force =     0.00005768    0.00004456   -0.00003987
     atom   91 type  1   force =     0.00006665    0.00007606   -0.00006595
     atom   92 type  1   force =     0.00004310    0.00006266   -0.00018827
     atom   93 type  1   force =    -0.00003040    0.00008084    0.00004635
     atom   94 type  1   force =    -0.00007332    0.00002773    0.00008627
     atom   95 type  1   force =     0.00010656    0.00002674    0.00012301
     atom   96 type  1   force =     0.00010099    0.00012294    0.00000030
     atom   97 type  1   force =    -0.00006224   -0.00008712    0.00008307
     atom   98 type  1   force =    -0.00006875   -0.00024443    0.00006897
     atom   99 type  1   force =    -0.00001412   -0.00013134    0.00004093
     atom  100 type  1   force =     0.00013996   -0.00010927   -0.00006115
     atom  101 type  1   force =    -0.00005230   -0.00003359   -0.00011238
     atom  102 type  1   force =    -0.00004071   -0.00012856    0.00000496
     atom  103 type  1   force =     0.00014747   -0.00012914    0.00003502
     atom  104 type  1   force =     0.00015888   -0.00001247    0.00000670
     atom  105 type  1   force =     0.00004823    0.00005109   -0.00005735
     atom  106 type  1   force =    -0.00001878    0.00004762   -0.00003755
     atom  107 type  1   force =     0.00016505    0.00009505   -0.00001659
     atom  108 type  1   force =     0.00009624   -0.00005206    0.00006411
     atom  109 type  1   force =     0.00009007    0.00000967    0.00000476
     atom  110 type  1   force =     0.00001373    0.00005289   -0.00002428
     atom  111 type  1   force =     0.00015322    0.00001958   -0.00000262
     atom  112 type  1   force =     0.00016193    0.00000132   -0.00001200
     atom  113 type  1   force =    -0.00008197    0.00001583   -0.00011300
     atom  114 type  1   force =     0.00012343    0.00005522   -0.00005069
     atom  115 type  1   force =     0.00023839    0.00003555    0.00017048
     atom  116 type  1   force =     0.00009885    0.00007080   -0.00004470
     atom  117 type  1   force =     0.00020770   -0.00008054    0.00004666
     atom  118 type  1   force =     0.00016521    0.00004052    0.00011507
     atom  119 type  1   force =     0.00016346    0.00007731    0.00001041
     atom  120 type  1   force =     0.00017079   -0.00001987    0.00001010
     atom  121 type  1   force =     0.00008934    0.00000957    0.00008257
     atom  122 type  1   force =     0.00004624   -0.00008055   -0.00001838
     atom  123 type  1   force =     0.00007254   -0.00004683   -0.00001420
     atom  124 type  1   force =     0.00011744   -0.00008103   -0.00007352
     atom  125 type  1   force =     0.00001672   -0.00007596   -0.00004263
     atom  126 type  1   force =     0.00006511    0.00002644    0.00001657
     atom  127 type  1   force =     0.00010306   -0.00003254   -0.00013699
     atom  128 type  1   force =     0.00007493   -0.00002504    0.00002932
     atom  129 type  1   force =     0.00000182    0.00001544    0.00009708
     atom  130 type  1   force =     0.00004330   -0.00001085    0.00009191
     atom  131 type  1   force =    -0.00008658    0.00006746    0.00013901
     atom  132 type  1   force =    -0.00006960   -0.00003615    0.00017248
     atom  133 type  1   force =     0.00009993    0.00001599    0.00001047
     atom  134 type  1   force =     0.00011278    0.00002147   -0.00001808
     atom  135 type  1   force =    -0.00007005    0.00001301   -0.00001757
     atom  136 type  1   force =    -0.00004671    0.00005134    0.00001503
     atom  137 type  1   force =     0.00011433   -0.00007717   -0.00015165
     atom  138 type  1   force =     0.00017423    0.00003296   -0.00012852
     atom  139 type  1   force =    -0.00002350   -0.00000113   -0.00005173
     atom  140 type  1   force =    -0.00004526    0.00006105   -0.00012053
     atom  141 type  1   force =     0.00000846   -0.00004435    0.00004855
     atom  142 type  1   force =    -0.00006384   -0.00001348    0.00003116
     atom  143 type  1   force =    -0.00009479   -0.00005410    0.00000494
     atom  144 type  1   force =    -0.00002456   -0.00004950   -0.00011293
     atom  145 type  1   force =    -0.00011015   -0.00001827    0.00005802
     atom  146 type  1   force =    -0.00007259    0.00001757    0.00008372
     atom  147 type  1   force =    -0.00000946   -0.00002984    0.00019170
     atom  148 type  1   force =     0.00005835    0.00010225    0.00002982
     atom  149 type  1   force =     0.00010037   -0.00005961    0.00003322
     atom  150 type  1   force =     0.00003193    0.00006516   -0.00000541
     atom  151 type  1   force =    -0.00000886   -0.00003977    0.00000905
     atom  152 type  1   force =     0.00000609    0.00010629    0.00005091
     atom  153 type  1   force =     0.00012556   -0.00002679   -0.00015881
     atom  154 type  1   force =     0.00014124    0.00013296    0.00002370
     atom  155 type  1   force =    -0.00003099    0.00000778   -0.00013809
     atom  156 type  1   force =     0.00007428    0.00011731   -0.00010171
     atom  157 type  1   force =     0.00010867    0.00010142    0.00001963
     atom  158 type  1   force =     0.00006173    0.00010094   -0.00002712
     atom  159 type  1   force =    -0.00007880    0.00012870   -0.00001061
     atom  160 type  1   force =    -0.00005365    0.00012901   -0.00002813
     atom  161 type  1   force =    -0.00001489   -0.00001360   -0.00001295
     atom  162 type  1   force =     0.00009142    0.00001123    0.00007704
     atom  163 type  1   force =     0.00008084   -0.00000613    0.00010959
     atom  164 type  1   force =     0.00005565    0.00002841    0.00004414
     atom  165 type  1   force =     0.00013486   -0.00001096    0.00011433
     atom  166 type  1   force =     0.00016116   -0.00006803   -0.00003303
     atom  167 type  1   force =    -0.00000166    0.00002351    0.00003179
     atom  168 type  1   force =    -0.00000774   -0.00012752    0.00009662
     atom  169 type  1   force =     0.00017631    0.00005426   -0.00002364
     atom  170 type  1   force =     0.00009333   -0.00006714   -0.00007135
     atom  171 type  1   force =     0.00001160    0.00002932   -0.00015252
     atom  172 type  1   force =     0.00001034   -0.00010274    0.00000800
     atom  173 type  1   force =     0.00003659    0.00001811   -0.00003901
     atom  174 type  1   force =     0.00001477   -0.00001890   -0.00004674
     atom  175 type  1   force =     0.00003673    0.00002793   -0.00006640
     atom  176 type  1   force =    -0.00000417   -0.00005603   -0.00002396
     atom  177 type  1   force =     0.00013258   -0.00003468    0.00001551
     atom  178 type  1   force =     0.00005512    0.00002802    0.00011037
     atom  179 type  1   force =     0.00003779   -0.00000863    0.00001452
     atom  180 type  1   force =    -0.00001228   -0.00007474    0.00002325
     atom  181 type  1   force =     0.00001000    0.00000318    0.00003093
     atom  182 type  1   force =     0.00011294    0.00003107    0.00003761
     atom  183 type  1   force =     0.00000683   -0.00005996    0.00001840
     atom  184 type  1   force =    -0.00003925    0.00002626    0.00002657
     atom  185 type  1   force =     0.00010469   -0.00000605    0.00001285
     atom  186 type  1   force =     0.00007353   -0.00008138   -0.00008333
     atom  187 type  1   force =    -0.00007449   -0.00004725   -0.00006535
     atom  188 type  1   force =    -0.00011230   -0.00002348   -0.00005891
     atom  189 type  1   force =     0.00000193   -0.00007583   -0.00004832
     atom  190 type  1   force =    -0.00001204   -0.00000719    0.00002602
     atom  191 type  1   force =     0.00001105   -0.00006822    0.00005887
     atom  192 type  1   force =    -0.00004237   -0.00009306   -0.00006242
     atom  193 type  1   force =    -0.00010664   -0.00005054    0.00006251
     atom  194 type  1   force =    -0.00012858    0.00000315    0.00014098
     atom  195 type  1   force =    -0.00009653    0.00001412    0.00008292
     atom  196 type  1   force =     0.00001803    0.00008738    0.00013619
     atom  197 type  1   force =    -0.00018826   -0.00003229    0.00000551
     atom  198 type  1   force =    -0.00016901    0.00008456    0.00001565
     atom  199 type  1   force =    -0.00008910   -0.00000812    0.00008148
     atom  200 type  1   force =    -0.00002108    0.00016462   -0.00006473
     atom  201 type  1   force =    -0.00013997   -0.00000883   -0.00012912
     atom  202 type  1   force =    -0.00012229    0.00004801   -0.00002830
     atom  203 type  1   force =    -0.00002448   -0.00008980   -0.00001140
     atom  204 type  1   force =    -0.00001116    0.00014968   -0.00017654
     atom  205 type  1   force =    -0.00005395   -0.00003093   -0.00008747
     atom  206 type  1   force =    -0.00005121    0.00004424    0.00000998
     atom  207 type  1   force =     0.00003734   -0.00013197   -0.00000524
     atom  208 type  1   force =    -0.00008175    0.00006968   -0.00006914
     atom  209 type  1   force =    -0.00001873    0.00006616    0.00008213
     atom  210 type  1   force =    -0.00001330    0.00012851    0.00009023
     atom  211 type  1   force =     0.00011828    0.00008565    0.00010283
     atom  212 type  1   force =     0.00000957    0.00006580    0.00010793
     atom  213 type  1   force =    -0.00014198    0.00000772    0.00004038
     atom  214 type  1   force =     0.00000640    0.00008417    0.00006066
     atom  215 type  1   force =     0.00001646    0.00004290    0.00005611
     atom  216 type  1   force =     0.00003838    0.00017051    0.00000753
     atom  217 type  1   force =    -0.00005838    0.00008344   -0.00016463
     atom  218 type  1   force =    -0.00004736    0.00020510   -0.00011653
     atom  219 type  1   force =    -0.00013191    0.00007821   -0.00003510
     atom  220 type  1   force =    -0.00013728    0.00013035   -0.00011230
     atom  221 type  1   force =     0.00003201    0.00007730   -0.00008090
     atom  222 type  1   force =    -0.00008859    0.00012256    0.00000740
     atom  223 type  1   force =     0.00001179    0.00006357    0.00002740
     atom  224 type  1   force =    -0.00003749    0.00008632   -0.00008514
     atom  225 type  1   force =    -0.00005291    0.00000578    0.00003994
     atom  226 type  1   force =    -0.00005559   -0.00004198    0.00000968
     atom  227 type  1   force =    -0.00002122   -0.00004762    0.00021299
     atom  228 type  1   force =    -0.00008136   -0.00004257    0.00000113
     atom  229 type  1   force =     0.00003459   -0.00006476    0.00003372
     atom  230 type  1   force =    -0.00012376   -0.00003393    0.00004922
     atom  231 type  1   force =    -0.00003873   -0.00013733   -0.00011778
     atom  232 type  1   force =    -0.00004649   -0.00019940   -0.00001009
     atom  233 type  1   force =    -0.00012081   -0.00005671    0.00003031
     atom  234 type  1   force =    -0.00005327   -0.00008479   -0.00005706
     atom  235 type  1   force =    -0.00013282   -0.00002559   -0.00008120
     atom  236 type  1   force =    -0.00009251   -0.00006634   -0.00002842
     atom  237 type  1   force =    -0.00006421    0.00005896   -0.00007039
     atom  238 type  1   force =    -0.00005120   -0.00007452   -0.00003203
     atom  239 type  1   force =     0.00004846    0.00005726   -0.00000185
     atom  240 type  1   force =    -0.00003302   -0.00002761   -0.00000275
     atom  241 type  1   force =    -0.00012748   -0.00006654    0.00001386
     atom  242 type  1   force =    -0.00010854   -0.00002525    0.00015757
     atom  243 type  1   force =    -0.00010931   -0.00011580    0.00004343
     atom  244 type  1   force =    -0.00007943   -0.00005339   -0.00007117
     atom  245 type  1   force =    -0.00010774   -0.00002478    0.00001140
     atom  246 type  1   force =    -0.00012863    0.00000653   -0.00003146
     atom  247 type  1   force =    -0.00012650   -0.00015000    0.00004381
     atom  248 type  1   force =    -0.00016099    0.00000915   -0.00005084
     atom  249 type  1   force =    -0.00007593   -0.00009951   -0.00004770
     atom  250 type  1   force =    -0.00003990   -0.00011685   -0.00003871
     atom  251 type  1   force =    -0.00013102   -0.00008622   -0.00000017
     atom  252 type  1   force =    -0.00006526   -0.00001825    0.00003158
     atom  253 type  1   force =    -0.00002866   -0.00008308   -0.00005181
     atom  254 type  1   force =    -0.00000643   -0.00009872    0.00002414
     atom  255 type  1   force =    -0.00005588   -0.00005632   -0.00002537
     atom  256 type  1   force =    -0.00006414   -0.00003494    0.00002165

     Total force =     0.387682     Total SCF correction =     0.002289

     Writing output data file Al.save/
 
     init_run     :    396.72s CPU    481.02s WALL (       1 calls)
     electrons    :  11948.42s CPU  13927.75s WALL (       1 calls)
     forces       :    249.04s CPU    254.90s WALL (       1 calls)

     Called by init_run:
     wfcinit      :    394.02s CPU    477.86s WALL (       1 calls)
     wfcinit:atom :      0.93s CPU      2.00s WALL (       9 calls)
     wfcinit:wfcr :    386.27s CPU    466.57s WALL (       9 calls)
     potinit      :      0.42s CPU      0.51s WALL (       1 calls)
     hinit0       :      0.53s CPU      0.82s WALL (       1 calls)

     Called by electrons:
     c_bands      :  11179.44s CPU  12834.19s WALL (      16 calls)
     sum_band     :    759.73s CPU   1081.98s WALL (      16 calls)
     v_of_rho     :      3.40s CPU      4.45s WALL (      16 calls)
     v_h          :      0.33s CPU      0.48s WALL (      16 calls)
     v_xc         :      3.30s CPU      4.25s WALL (      17 calls)
     mix_rho      :      1.04s CPU      1.73s WALL (      16 calls)

     Called by c_bands:
     init_us_2    :    126.23s CPU    139.28s WALL (     306 calls)
     cegterg      :   9319.51s CPU  10946.47s WALL (     144 calls)

     Called by sum_band:

     Called by *egterg:
     h_psi        :   6637.74s CPU   8248.54s WALL (     685 calls)
     g_psi        :      5.52s CPU      5.56s WALL (     532 calls)
     cdiaghg      :   1351.63s CPU   1362.24s WALL (     667 calls)
     cegterg:over :    729.85s CPU    744.24s WALL (     532 calls)
     cegterg:upda :    299.68s CPU    319.41s WALL (     532 calls)
     cegterg:last :    213.23s CPU    220.04s WALL (     144 calls)

     Called by h_psi:
     h_psi:pot    :   6630.26s CPU   8220.43s WALL (     685 calls)
     h_psi:calbec :   2075.56s CPU   2132.91s WALL (     685 calls)
     vloc_psi     :   2660.94s CPU   4165.16s WALL (     685 calls)
     add_vuspsi   :   1893.75s CPU   1922.35s WALL (     685 calls)

     General routines
     calbec       :   2298.68s CPU   2358.71s WALL (     721 calls)
     fft          :      2.80s CPU      3.81s WALL (     171 calls)
     ffts         :      0.22s CPU      0.29s WALL (      16 calls)
     fftw         :   2793.20s CPU   4588.58s WALL (  461242 calls)
 
     Parallel routines
     fft_scatt_xy :    547.05s CPU    850.96s WALL (  461429 calls)
     fft_scatt_yz :    694.79s CPU   1009.94s WALL (  461429 calls)
 
     PWSCF        :      3h30m CPU      4h 6m WALL

 
   This run was terminated on:   6:21:52  12Apr2020            

=------------------------------------------------------------------------------=
   JOB DONE.
=------------------------------------------------------------------------------=
