LAMMPS (19 Sep 2019)
Total wall time: 0:00:00
