ITEM: TIMESTEP
0
ITEM: NUMBER OF ATOMS
2
ITEM: BOX BOUNDS pp pp pp
0.0000000000000000e+00 3.3159999999999998e+00
0.0000000000000000e+00 3.3159999999999998e+00
0.0000000000000000e+00 3.3159999999999998e+00
ITEM: ATOMS id x y z c_b[1] c_b[2] c_b[3] c_b[4] c_b[5] 
1 0 0 0 3375 846.026 36.811 8.51924 0.247118 
2 1.658 1.658 1.658 3375 846.026 36.811 8.51924 0.247118 
